FOO
 3004
    1TIP3P    O    1   2.969   2.239   2.944 -0.0825  0.3913  0.7044
    1TIP3P    H    2   3.023   2.222   3.021  0.0728  0.9104  0.7132
    1TIP3P    H    3   2.881   2.254   2.978  0.0274  0.8196  0.7962
    2TIP3P    O    4   2.719   1.014   1.109 -0.8531 -0.2183 -0.7516
    2TIP3P    H    5   2.739   1.098   1.066 -1.6418 -0.8736 -2.4057
    2TIP3P    H    6   2.659   1.038   1.180 -0.6748  0.6829 -0.8911
    3TIP3P    O    7   2.452   0.138   2.775  0.0974 -0.1446 -0.4576
    3TIP3P    H    8   2.466   0.230   2.796  1.4936  0.6087 -4.2774
    3TIP3P    H    9   2.361   0.133   2.745 -0.5786 -0.4311  1.5471
    4TIP3P    O   10   1.436   1.018   0.103 -0.1056  0.3392  0.0659
    4TIP3P    H   11   1.371   1.085   0.120  0.2524  0.4295  1.1465
    4TIP3P    H   12   1.449   1.019   0.008  2.0592  3.8439  0.3188
    5TIP3P    O   13   2.303   0.469   1.310 -0.9483 -0.8320  0.6892
    5TIP3P    H   14   2.247   0.540   1.279 -0.1935 -0.1864  0.8019
    5TIP3P    H   15   2.358   0.447   1.234 -0.6882 -0.8110  0.8723
    6TIP3P    O   16   0.889   0.562   2.725 -0.7543 -0.0344  0.2874
    6TIP3P    H   17   0.853   0.474   2.712 -0.1174 -0.1105 -0.9818
    6TIP3P    H   18   0.815   0.613   2.758 -1.1897 -0.9861  0.8182
    7TIP3P    O   19   1.997   1.650   0.303 -0.5655 -0.1923  0.3800
    7TIP3P    H   20   1.909   1.683   0.320 -0.2470  1.4068 -0.9599
    7TIP3P    H   21   2.029   1.702   0.229  0.5310 -2.5435 -0.8587
    8TIP3P    O   22   0.682   0.437   1.908 -0.0726 -0.2396  0.3102
    8TIP3P    H   23   0.726   0.500   1.852  1.7018 -1.7096 -0.0044
    8TIP3P    H   24   0.637   0.378   1.848  1.6055 -1.6545  0.4178
    9TIP3P    O   25   2.823   0.873   1.314  0.3737 -0.3078  0.0573
    9TIP3P    H   26   2.916   0.881   1.335  0.0004  1.9486  1.0575
    9TIP3P    H   27   2.812   0.919   1.232  0.2666 -1.3292 -0.5140
   10TIP3P    O   28   2.431   2.865   2.846 -0.3930  0.4604 -0.8656
   10TIP3P    H   29   2.367   2.902   2.786  0.1984  1.9941 -0.5592
   10TIP3P    H   30   2.453   2.779   2.808 -2.0429  0.2513 -1.3602
   11TIP3P    O   31   2.360   0.461   0.503  0.1381  0.0274 -0.4384
   11TIP3P    H   32   2.424   0.420   0.445  1.4037  1.4500 -0.0803
   11TIP3P    H   33   2.332   0.391   0.562  2.1678 -0.3703  0.0817
   12TIP3P    O   34   2.747   0.563   3.107 -0.0767  0.1955  0.0512
   12TIP3P    H   35   2.660   0.595   3.083 -0.1704  0.4407  0.7040
   12TIP3P    H   36   2.791   0.547   3.023 -0.3815  1.0626 -0.2845
   13TIP3P    O   37   1.051   2.204   2.904  0.5336  0.2073 -0.3118
   13TIP3P    H   38   1.093   2.290   2.909  2.0311 -0.3977 -2.0267
   13TIP3P    H   39   1.101   2.150   2.965  1.0110 -0.0182 -0.9040
   14TIP3P    O   40   1.239   2.377   2.176 -0.1049  0.3535 -0.2359
   14TIP3P    H   41   1.151   2.340   2.173 -0.3944  1.1344 -1.6348
   14TIP3P    H   42   1.225   2.472   2.173  0.7249  0.5323  1.0268
   15TIP3P    O   43   1.650   1.813   1.492 -0.7276 -0.2622 -0.3492
   15TIP3P    H   44   1.623   1.905   1.496 -1.2954 -0.4263 -0.3145
   15TIP3P    H   45   1.587   1.767   1.548 -0.1525 -0.6024  0.0163
   16TIP3P    O   46   0.841   2.693   2.932 -0.2177  0.3624  0.1762
   16TIP3P    H   47   0.893   2.614   2.915  1.2942  1.4561 -0.3546
   16TIP3P    H   48   0.817   2.686   3.024 -1.3029 -1.4088 -0.2039
   17TIP3P    O   49   2.837   1.208   2.511 -0.0971  0.1798  0.3939
   17TIP3P    H   50   2.802   1.159   2.585  0.8242  0.4657  1.0248
   17TIP3P    H   51   2.906   1.152   2.475  1.7780  1.4819  1.8412
   18TIP3P    O   52   0.738   1.685   1.035  0.4796 -0.3657  0.3620
   18TIP3P    H   53   0.654   1.655   1.070 -0.3069 -0.6165 -1.6402
   18TIP3P    H   54   0.751   1.633   0.956  1.2310  1.5178 -0.7957
   19TIP3P    O   55   0.880   0.053   0.698 -0.2482 -0.4587  0.0898
   19TIP3P    H   56   0.913  -0.013   0.637  1.8825  0.0569  0.6500
   19TIP3P    H   57   0.826   0.003   0.759  1.0103 -1.6588  0.2713
   20TIP3P    O   58   1.489   1.228   2.749  0.0071 -0.6650 -0.2829
   20TIP3P    H   59   1.551   1.222   2.677  0.7737  1.9769  0.0971
   20TIP3P    H   60   1.403   1.234   2.707  0.3903  0.1359 -0.9687
   21TIP3P    O   61   2.482   0.532   0.759  0.1030  0.4435 -0.0397
   21TIP3P    H   62   2.477   0.485   0.675 -0.6147  0.6947 -0.1391
   21TIP3P    H   63   2.551   0.487   0.807 -0.4677 -0.6169 -0.1971
   22TIP3P    O   64   2.726   3.061   1.668 -0.1144 -0.3329  0.0488
   22TIP3P    H   65   2.685   3.018   1.593  1.2250 -0.2030 -0.7795
   22TIP3P    H   66   2.819   3.037   1.661  0.5096  2.0417  0.0190
   23TIP3P    O   67   0.372   0.673   2.560  0.2483 -0.0059  0.1164
   23TIP3P    H   68   0.391   0.580   2.554  1.2661 -0.0717  3.1459
   23TIP3P    H   69   0.453   0.716   2.531  1.4443 -0.1735  3.0159
   24TIP3P    O   70   2.886   0.631   0.230 -0.2616 -0.3966 -0.1075
   24TIP3P    H   71   2.841   0.609   0.148 -0.9300 -0.2321  0.2144
   24TIP3P    H   72   2.975   0.652   0.203 -0.8432  1.0335 -0.9600
   25TIP3P    O   73   0.146   1.660   0.306 -0.4514 -0.1490  0.5147
   25TIP3P    H   74   0.131   1.626   0.218 -1.9903 -0.9369  1.0634
   25TIP3P    H   75   0.059   1.688   0.336  0.2266  1.0954  1.3869
   26TIP3P    O   76   2.566   0.358   2.255 -0.5388 -0.0956 -0.1852
   26TIP3P    H   77   2.641   0.300   2.242 -2.1142 -2.4150  0.6591
   26TIP3P    H   78   2.509   0.310   2.315 -1.0528  3.1626  2.0483
   27TIP3P    O   79   2.529   2.030   0.824 -0.4754 -0.3292  0.3875
   27TIP3P    H   80   2.469   2.035   0.899 -0.4315  0.1788  0.3873
   27TIP3P    H   81   2.605   2.082   0.850 -0.3730 -0.3210  0.0696
   28TIP3P    O   82   2.158   1.349   0.906 -0.3134 -0.0891 -0.6594
   28TIP3P    H   83   2.230   1.323   0.964 -1.7169  0.2418  1.2942
   28TIP3P    H   84   2.104   1.270   0.899 -0.8562  0.2597 -0.4332
   29TIP3P    O   85   2.184   1.673   1.702 -0.3089  0.4315  0.0520
   29TIP3P    H   86   2.203   1.616   1.776 -0.0052  0.3226 -0.1079
   29TIP3P    H   87   2.128   1.620   1.645  1.5476 -0.3967 -1.0202
   30TIP3P    O   88   0.671   2.843   2.804 -0.6249  0.0735  0.3514
   30TIP3P    H   89   0.734   2.803   2.864  0.1323 -0.4895 -0.7954
   30TIP3P    H   90   0.677   2.790   2.725 -0.1772  1.9814 -0.9120
   31TIP3P    O   91   1.692   2.651   1.113 -0.0273  0.7919 -0.3603
   31TIP3P    H   92   1.625   2.609   1.169 -0.7394  0.7801 -1.2169
   31TIP3P    H   93   1.735   2.714   1.171  1.1093 -1.1516  0.9835
   32TIP3P    O   94   0.596   1.768   2.420 -0.0254 -0.1775  0.0301
   32TIP3P    H   95   0.622   1.853   2.385  3.7462 -0.7617  1.0902
   32TIP3P    H   96   0.537   1.731   2.354 -0.6277  2.6538 -1.0817
   33TIP3P    O   97   2.513   0.621   2.997  0.2628  0.2119 -0.4246
   33TIP3P    H   98   2.425   0.617   2.959  0.2273  1.8591 -0.5507
   33TIP3P    H   99   2.567   0.662   2.929  0.7750  0.7192  0.2815
   34TIP3P    O  100   2.938   0.309   1.600 -0.1013 -0.3853 -0.2780
   34TIP3P    H  101   2.858   0.259   1.612 -0.7207 -0.0663 -2.7548
   34TIP3P    H  102   2.913   0.383   1.544  1.5903  0.5885  0.1898
   35TIP3P    O  103   3.056   1.751   0.816  0.0883  0.3629  0.5233
   35TIP3P    H  104   3.125   1.685   0.804 -0.1424 -0.1759  2.0784
   35TIP3P    H  105   3.079   1.794   0.899  1.2249  3.4482 -1.3336
   36TIP3P    O  106   2.767   1.869   1.333  0.0073 -0.1358 -0.8790
   36TIP3P    H  107   2.708   1.821   1.392 -0.1751  1.7605  0.5215
   36TIP3P    H  108   2.852   1.863   1.375  0.0388  0.5069 -0.8485
   37TIP3P    O  109   0.852   1.883   0.003  0.2886  0.0815 -0.9690
   37TIP3P    H  110   0.839   1.974  -0.025  0.0783  0.4023  0.1330
   37TIP3P    H  111   0.939   1.883   0.044 -0.0926  0.0132 -0.1330
   38TIP3P    O  112   1.955   1.771   0.640 -0.2674  0.1211 -0.3388
   38TIP3P    H  113   1.887   1.819   0.594  0.6787  2.0601  0.2642
   38TIP3P    H  114   1.969   1.820   0.721 -0.2514 -1.9328  0.9407
   39TIP3P    O  115   0.871   1.358   2.620 -0.9342 -0.3156 -0.4357
   39TIP3P    H  116   0.905   1.445   2.601 -0.3681 -0.1316  1.3398
   39TIP3P    H  117   0.925   1.299   2.568 -0.9949  0.3429 -1.2581
   40TIP3P    O  118   0.932   1.350   0.660  0.1190 -0.7036 -0.5917
   40TIP3P    H  119   0.861   1.298   0.697 -0.2051  0.0364 -0.1659
   40TIP3P    H  120   0.918   1.438   0.695  1.3232 -0.5838 -0.4043
   41TIP3P    O  121   2.173   1.830   1.123 -0.0187  0.2837 -0.5323
   41TIP3P    H  122   2.244   1.773   1.153 -1.1533  0.1750  2.1134
   41TIP3P    H  123   2.121   1.775   1.065  1.9227  0.3209 -2.3788
   42TIP3P    O  124   0.986   1.963   1.491  0.8864  0.5420  0.0360
   42TIP3P    H  125   0.947   2.043   1.457  0.7917  0.1008 -0.9082
   42TIP3P    H  126   1.079   1.984   1.501  0.4956  1.4892  1.9789
   43TIP3P    O  127   2.461   2.425   2.285 -0.2533 -0.8248 -0.1152
   43TIP3P    H  128   2.502   2.486   2.225  0.1120 -1.4096 -0.4646
   43TIP3P    H  129   2.459   2.471   2.369 -0.8314  0.0198 -0.5845
   44TIP3P    O  130   1.588   0.955   2.420 -0.1084 -0.4299  0.1955
   44TIP3P    H  131   1.552   0.900   2.349 -1.8948 -0.4223  1.0745
   44TIP3P    H  132   1.527   0.943   2.493 -0.3309  2.4485  0.5323
   45TIP3P    O  133   0.604   2.680   0.609  0.0627 -0.2183 -0.0142
   45TIP3P    H  134   0.618   2.742   0.681  1.3291 -0.2991 -0.1674
   45TIP3P    H  135   0.550   2.611   0.647 -0.0999  0.2244  0.5832
   46TIP3P    O  136   1.991   2.418   1.868  0.5947 -0.1658 -0.5241
   46TIP3P    H  137   1.945   2.369   1.936  0.6008  0.4054 -0.1073
   46TIP3P    H  138   2.051   2.355   1.829  1.2802 -0.2525  0.6410
   47TIP3P    O  139   2.741   1.960   2.243 -0.7896  0.5897  0.2074
   47TIP3P    H  140   2.716   2.041   2.288  0.2538  0.2536  1.4220
   47TIP3P    H  141   2.662   1.905   2.248 -2.3508  2.4074 -2.7999
   48TIP3P    O  142   2.339   2.063   1.024 -0.0168 -0.2516  0.1734
   48TIP3P    H  143   2.311   1.984   1.071  0.1629  0.4833  1.5440
   48TIP3P    H  144   2.295   2.135   1.069 -2.6453  0.2272 -2.9755
   49TIP3P    O  145   1.358   0.914   2.598 -0.7651  0.1475 -0.0420
   49TIP3P    H  146   1.288   0.922   2.533 -0.5557  1.5676 -0.1105
   49TIP3P    H  147   1.314   0.881   2.676 -1.2931 -0.1217 -0.4515
   50TIP3P    O  148   0.137   0.189   2.288 -0.4728  0.2392  0.2207
   50TIP3P    H  149   0.053   0.193   2.335 -0.3945  2.3640  0.2333
   50TIP3P    H  150   0.116   0.221   2.200 -0.1144 -1.3838 -0.4730
   51TIP3P    O  151   0.934   0.993   1.267  0.1430  0.1925 -0.1359
   51TIP3P    H  152   0.859   1.025   1.316  0.5770  1.7999 -0.4934
   51TIP3P    H  153   0.902   0.981   1.177 -0.1489 -0.8739  0.1070
   52TIP3P    O  154   3.056   2.147   0.948  0.6517  0.5243 -0.0538
   52TIP3P    H  155   3.063   2.099   1.030  0.6748  1.4354  0.4816
   52TIP3P    H  156   3.016   2.231   0.972  2.0375  1.3927 -0.7353
   53TIP3P    O  157   0.787   2.398   1.255  0.1719 -0.3894 -0.7332
   53TIP3P    H  158   0.718   2.459   1.279  0.4144  0.2577 -1.6422
   53TIP3P    H  159   0.793   2.405   1.160 -0.5922 -2.6994 -0.9745
   54TIP3P    O  160   2.988   1.510   0.645 -0.1938  0.4429  0.3541
   54TIP3P    H  161   2.914   1.461   0.607 -0.7539  0.9222  0.8169
   54TIP3P    H  162   2.951   1.553   0.722  0.5276  0.8431  0.4785
   55TIP3P    O  163   2.989   0.173   2.376 -0.2675  0.2793  0.2629
   55TIP3P    H  164   2.919   0.110   2.361  0.1106 -0.2438  0.6765
   55TIP3P    H  165   3.026   0.148   2.461 -0.1894  1.1260  0.4781
   56TIP3P    O  166   1.735   0.960   0.353 -0.5660  0.2420  0.4792
   56TIP3P    H  167   1.757   1.052   0.341  0.7824  0.0280  1.1997
   56TIP3P    H  168   1.819   0.917   0.370 -1.2859 -0.9719  1.0799
   57TIP3P    O  169   0.388   0.103   0.571 -0.0819 -0.0488 -0.2647
   57TIP3P    H  170   0.313   0.088   0.514 -1.4769 -0.6883  1.6837
   57TIP3P    H  171   0.350   0.114   0.658  2.1131 -0.6651  0.7983
   58TIP3P    O  172   0.770   1.379   1.333  0.6090  0.1772  0.3340
   58TIP3P    H  173   0.818   1.449   1.288  0.2597  0.0331 -0.2731
   58TIP3P    H  174   0.834   1.307   1.340  0.5157  0.0232 -0.3795
   59TIP3P    O  175   0.858   0.433   2.165  0.3935  0.1889  0.7111
   59TIP3P    H  176   0.899   0.350   2.193  2.4554  1.0702  0.4017
   59TIP3P    H  177   0.846   0.423   2.070  0.3424  0.1182  0.7249
   60TIP3P    O  178   2.180   2.794   3.097  0.1293  0.8289 -0.0928
   60TIP3P    H  179   2.245   2.827   3.159  0.8177  1.3561 -1.0738
   60TIP3P    H  180   2.204   2.834   3.013 -0.0844 -0.7876 -0.9465
   61TIP3P    O  181   1.354   1.856   1.831 -0.4976  0.1581  0.1835
   61TIP3P    H  182   1.376   1.941   1.792 -1.0294 -0.5455 -1.6573
   61TIP3P    H  183   1.271   1.872   1.877 -1.2506  0.3334 -1.2221
   62TIP3P    O  184   2.809   1.571   2.217  0.3761  0.1964 -0.1967
   62TIP3P    H  185   2.761   1.616   2.287 -0.9948 -1.7254  0.1328
   62TIP3P    H  186   2.856   1.641   2.172 -0.3231  1.7268  1.3837
   63TIP3P    O  187   2.197   3.014   0.506 -0.0454  0.0643 -0.0944
   63TIP3P    H  188   2.163   2.949   0.444  1.2152 -0.3461 -0.3625
   63TIP3P    H  189   2.290   2.995   0.513  0.2447  1.5031  0.2475
   64TIP3P    O  190   2.125   0.416   2.472  0.1634 -0.3385  0.4973
   64TIP3P    H  191   2.211   0.449   2.501 -0.8464  2.2128  0.7756
   64TIP3P    H  192   2.109   0.460   2.389 -1.2844 -0.0416  0.9163
   65TIP3P    O  193   2.470   0.178   0.414 -0.2439  0.2715 -0.0548
   65TIP3P    H  194   2.538   0.130   0.366 -0.4702 -0.5111  0.3954
   65TIP3P    H  195   2.468   0.136   0.500 -1.6401 -0.0363 -0.2286
   66TIP3P    O  196   1.964   1.532   3.020 -0.5360  0.3163 -0.4862
   66TIP3P    H  197   2.039   1.478   2.995 -0.3791  0.4978 -0.4123
   66TIP3P    H  198   1.959   1.525   3.115 -1.0309 -0.2384 -0.5522
   67TIP3P    O  199   1.646   3.116   2.475  0.2886  0.0455 -0.1264
   67TIP3P    H  200   1.596   3.158   2.544  1.8687  0.4282  0.8211
   67TIP3P    H  201   1.581   3.088   2.411 -1.1028  0.5983  1.0280
   68TIP3P    O  202   3.091   1.386   2.151  0.3776 -0.9772  0.2656
   68TIP3P    H  203   3.014   1.331   2.164 -1.7254  1.7763  0.0556
   68TIP3P    H  204   3.083   1.453   2.219  1.5265  0.4629 -0.9985
   69TIP3P    O  205   2.422   1.317   2.937  0.3517 -0.0800 -0.2730
   69TIP3P    H  206   2.428   1.241   2.994 -0.3616 -0.5103 -0.7595
   69TIP3P    H  207   2.507   1.321   2.892  0.1607 -0.9792 -0.7276
   70TIP3P    O  208   0.926   1.535   2.364 -0.4968 -0.3396 -0.0284
   70TIP3P    H  209   1.007   1.546   2.315  0.3359  0.9103  1.5629
   70TIP3P    H  210   0.947   1.568   2.452 -2.6959 -0.0730  0.4239
   71TIP3P    O  211   2.617   1.066   0.406  0.5394 -0.2138 -0.0014
   71TIP3P    H  212   2.591   1.028   0.322 -1.1408  1.2951 -0.1956
   71TIP3P    H  213   2.564   1.020   0.470  1.3323 -0.8930  0.1749
   72TIP3P    O  214   1.706   2.480   0.424 -0.1484  0.4982 -0.0868
   72TIP3P    H  215   1.612   2.485   0.403  0.0402 -0.4692 -1.2181
   72TIP3P    H  216   1.749   2.475   0.339  0.8166 -0.8330  0.4608
   73TIP3P    O  217   1.525   1.880   0.417 -0.4117 -0.1329  0.1858
   73TIP3P    H  218   1.474   1.845   0.345 -0.3837 -1.4752  0.8084
   73TIP3P    H  219   1.498   1.972   0.423 -0.7449 -0.1268 -1.2213
   74TIP3P    O  220   1.649   1.925   2.172  0.2667 -0.3400  0.0392
   74TIP3P    H  221   1.570   1.874   2.190 -0.7719  0.8932 -0.8803
   74TIP3P    H  222   1.714   1.860   2.145 -0.9988 -1.2051 -1.0286
   75TIP3P    O  223   2.399   0.748   1.187  0.4204 -0.1885  0.8414
   75TIP3P    H  224   2.485   0.718   1.216  1.0721  1.6721  0.8335
   75TIP3P    H  225   2.354   0.776   1.267  0.8418  1.4110  0.5350
   76TIP3P    O  226   0.773   1.164   0.771  0.4427  0.0218  1.0943
   76TIP3P    H  227   0.831   1.106   0.821 -0.2124 -0.6168  1.1215
   76TIP3P    H  228   0.728   1.105   0.710  0.1393  0.5776  0.7807
   77TIP3P    O  229   0.033   2.653   1.385 -0.0863  0.3189  0.0077
   77TIP3P    H  230   0.063   2.605   1.307  1.3568 -0.5932  1.0960
   77TIP3P    H  231   0.057   2.744   1.367  0.2021  0.1266 -0.6333
   78TIP3P    O  232   1.795   2.831   2.917 -0.1515 -0.3796  0.8579
   78TIP3P    H  233   1.774   2.924   2.908 -0.9484 -0.5563  0.8502
   78TIP3P    H  234   1.773   2.810   3.007  0.8387 -0.3672  1.1130
   79TIP3P    O  235   2.268   2.232   0.109  0.1456 -0.6714  0.6453
   79TIP3P    H  236   2.316   2.172   0.053 -0.3904 -1.8337  1.4068
   79TIP3P    H  237   2.225   2.176   0.174  0.8885  0.6376  2.3163
   80TIP3P    O  238   1.162   0.970   2.432 -0.3531  0.0669 -0.7579
   80TIP3P    H  239   1.089   0.914   2.455  0.3704 -0.3562  0.5498
   80TIP3P    H  240   1.206   0.925   2.359 -1.5399  0.4597 -1.7220
   81TIP3P    O  241   1.739   1.511   1.628 -0.2575 -0.4418 -0.1265
   81TIP3P    H  242   1.751   1.451   1.701 -1.6337 -0.4447  0.1237
   81TIP3P    H  243   1.645   1.532   1.630 -0.3455 -0.5427 -1.9619
   82TIP3P    O  244   0.790   0.608   0.577  0.3905  0.9366  0.0710
   82TIP3P    H  245   0.781   0.540   0.510 -0.3141  0.1865  0.9061
   82TIP3P    H  246   0.759   0.688   0.535 -0.4181  0.3965 -0.3740
   83TIP3P    O  247   2.135   1.985   1.964 -0.0760 -0.4094  0.4562
   83TIP3P    H  248   2.224   1.955   1.982 -0.9962 -2.7694  1.3605
   83TIP3P    H  249   2.091   1.978   2.049 -0.4008  3.5081  0.6844
   84TIP3P    O  250   0.719   0.512   0.295  0.0066 -0.4253 -0.0318
   84TIP3P    H  251   0.686   0.602   0.289  1.3919  0.0512 -0.5391
   84TIP3P    H  252   0.640   0.458   0.287 -1.1486  0.7521  2.7139
   85TIP3P    O  253   0.050   1.278   1.644  0.6066 -0.3795 -0.6673
   85TIP3P    H  254  -0.028   1.331   1.632  0.3758 -0.8318 -1.1891
   85TIP3P    H  255   0.120   1.341   1.660 -0.1961 -0.0494  1.6884
   86TIP3P    O  256   1.768   0.002   2.861  0.1921 -0.1173  0.0542
   86TIP3P    H  257   1.818   0.077   2.895  0.8802 -1.1812  1.4529
   86TIP3P    H  258   1.715  -0.026   2.935 -1.4018  0.0683 -0.9938
   87TIP3P    O  259   2.624   2.954   1.044  0.5613 -0.0667 -0.3574
   87TIP3P    H  260   2.679   3.023   1.081  0.6156  0.3849 -1.2394
   87TIP3P    H  261   2.536   2.973   1.078  0.2795  1.3865 -1.8162
   88TIP3P    O  262   0.476   2.228   0.607 -0.1545 -0.0820  0.1492
   88TIP3P    H  263   0.391   2.202   0.573  0.5385 -0.3191 -1.4650
   88TIP3P    H  264   0.538   2.169   0.565  0.5645 -1.8421  3.5490
   89TIP3P    O  265   0.762   1.642   1.709  0.8130  0.2361  0.0334
   89TIP3P    H  266   0.847   1.685   1.711 -0.4058  2.8281 -0.6845
   89TIP3P    H  267   0.715   1.686   1.637 -0.7677 -1.8423 -0.2565
   90TIP3P    O  268   2.990   2.617   0.486  0.0860  0.2788 -0.0916
   90TIP3P    H  269   2.940   2.564   0.425  0.2446  0.8037 -0.6821
   90TIP3P    H  270   3.078   2.621   0.449  0.1608  0.6714  0.1243
   91TIP3P    O  271   1.226   2.390   1.379  0.6153 -0.4337  0.0370
   91TIP3P    H  272   1.253   2.439   1.302  0.3020 -1.0120 -0.4463
   91TIP3P    H  273   1.131   2.378   1.368  0.7888 -1.7272 -0.2020
   92TIP3P    O  274   2.289   0.048   0.916 -0.4373  0.2584  0.2483
   92TIP3P    H  275   2.222  -0.018   0.899 -2.5436  2.4357 -0.1734
   92TIP3P    H  276   2.242   0.119   0.961  1.6319  1.7288  0.1728
   93TIP3P    O  277   1.388   0.969   1.807  0.0326  0.0953 -0.3280
   93TIP3P    H  278   1.446   0.909   1.853 -1.0835 -0.6018  0.1893
   93TIP3P    H  279   1.352   0.917   1.735 -1.9008 -0.2634  0.8606
   94TIP3P    O  280   2.139   0.903   1.030 -0.1444  0.5180 -0.3925
   94TIP3P    H  281   2.083   0.944   0.963 -1.7221 -0.7873  0.0859
   94TIP3P    H  282   2.213   0.868   0.981 -1.1589 -0.2024 -1.4509
   95TIP3P    O  283   1.622   0.505   2.936  0.2536 -0.0354 -0.8939
   95TIP3P    H  284   1.566   0.442   2.981  1.2262  0.7272  1.4263
   95TIP3P    H  285   1.648   0.460   2.855  2.1757 -3.2504  1.3836
   96TIP3P    O  286   1.586   0.548   0.225 -0.0610  0.1730 -0.2196
   96TIP3P    H  287   1.604   0.589   0.309  1.0765  0.1552 -0.4403
   96TIP3P    H  288   1.553   0.618   0.169 -0.3310  0.2923  0.0935
   97TIP3P    O  289   1.947   3.014   1.176  0.2906 -0.0459 -0.1576
   97TIP3P    H  290   1.938   2.942   1.113  0.7133  1.7706 -2.3399
   97TIP3P    H  291   2.041   3.016   1.197  0.1756 -0.5469  0.4163
   98TIP3P    O  292   0.549   1.129   2.277 -0.0700 -0.6992 -0.8804
   98TIP3P    H  293   0.565   1.098   2.367 -0.1220 -1.1561 -1.0239
   98TIP3P    H  294   0.616   1.196   2.262  0.0726 -0.7708 -0.5738
   99TIP3P    O  295   1.720   0.558   2.001  0.5887 -0.2856 -0.2168
   99TIP3P    H  296   1.791   0.623   2.001  0.9427 -0.6692 -0.5308
   99TIP3P    H  297   1.759   0.480   2.040  0.2125 -0.3626  0.0020
  100TIP3P    O  298   0.220   0.208   3.005 -0.1061 -0.1409 -0.1411
  100TIP3P    H  299   0.223   0.271   2.933  0.6121  0.2703  0.2389
  100TIP3P    H  300   0.298   0.154   2.993 -0.2460 -0.3867  0.0475
  101TIP3P    O  301   1.127   2.715   0.853 -0.1425  0.2132  0.2110
  101TIP3P    H  302   1.059   2.720   0.921 -0.0137  0.1928  0.3420
  101TIP3P    H  303   1.175   2.797   0.860 -1.4099  1.1040 -1.2142
  102TIP3P    O  304   0.250   2.593   0.540 -0.3445 -0.1934  0.0659
  102TIP3P    H  305   0.307   2.521   0.569 -2.7879 -2.1823  0.0620
  102TIP3P    H  306   0.286   2.618   0.454 -2.1161 -4.5578 -2.1190
  103TIP3P    O  307   1.224   2.633   0.103  0.8836 -0.0451  0.2657
  103TIP3P    H  308   1.297   2.572   0.111  0.6400 -0.2062  1.1922
  103TIP3P    H  309   1.184   2.636   0.190  1.8008  2.5618  0.6352
  104TIP3P    O  310   1.591   0.100   1.907 -0.2493  0.1070 -0.0805
  104TIP3P    H  311   1.649   0.089   1.982  0.2875  0.7378 -0.4008
  104TIP3P    H  312   1.578   0.194   1.900  0.2322  0.1079 -1.1626
  105TIP3P    O  313   0.335   1.487   2.680 -0.6171 -0.2572 -0.0030
  105TIP3P    H  314   0.272   1.417   2.662 -0.5720 -0.1502 -0.6183
  105TIP3P    H  315   0.408   1.468   2.621 -1.2965  1.2139 -1.3656
  106TIP3P    O  316   2.606   0.005   1.967 -0.3875 -0.4686 -0.2956
  106TIP3P    H  317   2.582  -0.061   1.901  0.2495 -1.3081  0.2999
  106TIP3P    H  318   2.702   0.009   1.963 -0.4023  0.1335 -0.0524
  107TIP3P    O  319   1.611   2.915   1.389 -0.7981 -0.1430  0.0847
  107TIP3P    H  320   1.552   2.896   1.462  0.4922 -1.5023  0.8141
  107TIP3P    H  321   1.644   2.829   1.363 -0.3625  0.4485 -1.3683
  108TIP3P    O  322   1.747   0.025   2.121 -0.0706 -0.0608  0.3247
  108TIP3P    H  323   1.762   0.094   2.186 -0.6595  0.9517 -0.5959
  108TIP3P    H  324   1.716  -0.050   2.172 -0.3546  0.6689  1.2354
  109TIP3P    O  325   1.392   1.811   2.682  0.5033  0.0116  0.9441
  109TIP3P    H  326   1.297   1.812   2.664  0.3219  0.8965  1.9698
  109TIP3P    H  327   1.411   1.898   2.717  2.2395  0.8707 -1.9758
  110TIP3P    O  328   1.455   0.334   1.009 -0.1310  0.1773 -0.3380
  110TIP3P    H  329   1.429   0.253   1.052  1.0663 -0.0403 -0.0102
  110TIP3P    H  330   1.374   0.385   1.002 -0.5118 -0.1978  1.2731
  111TIP3P    O  331   1.025   1.208   2.425  0.0246 -0.2181 -0.1563
  111TIP3P    H  332   1.021   1.262   2.347  0.2900  0.7045  0.4563
  111TIP3P    H  333   1.057   1.123   2.394 -1.7876 -0.4794 -1.3428
  112TIP3P    O  334   0.130   1.552   0.851  0.0501  0.0254 -0.2830
  112TIP3P    H  335   0.222   1.574   0.870 -0.3250  1.4660 -0.1105
  112TIP3P    H  336   0.130   1.456   0.844  1.5072 -0.0164  0.0445
  113TIP3P    O  337   0.445   2.276   2.250  0.4577  0.6229  0.1390
  113TIP3P    H  338   0.415   2.225   2.325 -1.3260 -1.0171 -1.6504
  113TIP3P    H  339   0.469   2.361   2.287 -1.4202  0.2084  2.4032
  114TIP3P    O  340   0.136   2.989   3.079 -0.4266 -0.1698 -0.0323
  114TIP3P    H  341   0.193   2.912   3.083  0.7208  0.6566 -0.5563
  114TIP3P    H  342   0.137   3.025   3.168 -1.4956 -1.1220  0.3865
  115TIP3P    O  343   1.047   0.784   2.612  0.0034 -0.0261 -0.5497
  115TIP3P    H  344   1.003   0.715   2.661 -0.5679  0.4231 -0.4316
  115TIP3P    H  345   1.124   0.806   2.666  0.1919 -0.5801 -0.5981
  116TIP3P    O  346   1.869   0.847   1.246  0.1690 -0.1694 -0.5131
  116TIP3P    H  347   1.809   0.778   1.217 -0.9252  0.0052  1.2478
  116TIP3P    H  348   1.879   0.832   1.340  2.9781 -0.2365 -0.7951
  117TIP3P    O  349   1.827   2.810   0.788 -0.2166 -0.1104 -0.0518
  117TIP3P    H  350   1.885   2.845   0.721 -0.8067  0.0289 -0.4878
  117TIP3P    H  351   1.811   2.719   0.762  0.0882 -0.2597  0.2644
  118TIP3P    O  352   1.176   1.010   1.407 -0.1538  0.2868 -0.6817
  118TIP3P    H  353   1.172   1.102   1.433 -1.6397  0.0406  0.0437
  118TIP3P    H  354   1.106   1.001   1.343 -0.3876 -0.4568 -0.3245
  119TIP3P    O  355   1.660   0.970   1.372 -0.0308  0.4593 -0.0766
  119TIP3P    H  356   1.618   1.046   1.331 -1.3077 -0.1911  0.0283
  119TIP3P    H  357   1.717   0.934   1.303 -1.4862 -0.0927 -1.0090
  120TIP3P    O  358   0.405   2.624   0.321  0.3484  0.3396  0.1924
  120TIP3P    H  359   0.409   2.588   0.233 -1.6454  0.1398  0.1419
  120TIP3P    H  360   0.495   2.625   0.352  1.0671  0.4122 -1.8483
  121TIP3P    O  361   1.900   2.891   2.470 -0.1069 -0.0464 -0.7721
  121TIP3P    H  362   1.948   2.848   2.541  0.6116  0.9005 -0.6743
  121TIP3P    H  363   1.920   2.984   2.481 -2.2515  0.4007 -0.5099
  122TIP3P    O  364   1.018   0.580   3.010 -0.3599  0.5618 -0.0726
  122TIP3P    H  365   0.959   0.539   2.947  0.3444 -1.2631  0.4319
  122TIP3P    H  366   1.091   0.612   2.958 -1.0507  1.4893 -0.5005
  123TIP3P    O  367   2.627   0.743   0.237  0.1921  0.2331 -0.2415
  123TIP3P    H  368   2.712   0.699   0.231 -0.0556 -0.3339  0.3311
  123TIP3P    H  369   2.590   0.714   0.321  0.0977  1.6680  0.2392
  124TIP3P    O  370   1.328   0.424   1.271  0.3814  0.3949  0.1066
  124TIP3P    H  371   1.414   0.424   1.312  0.5241  1.1485 -0.1862
  124TIP3P    H  372   1.317   0.334   1.238  0.4970 -0.0649  1.2747
  125TIP3P    O  373   2.952   2.511   2.006  0.7350 -0.4616  0.0181
  125TIP3P    H  374   2.909   2.541   2.086  0.3222 -3.5008  1.0038
  125TIP3P    H  375   2.946   2.586   1.946 -1.3669  0.9375  1.8774
  126TIP3P    O  376   1.160   1.066   0.443 -0.0353 -0.5549 -0.1853
  126TIP3P    H  377   1.161   1.107   0.357  0.3722  0.3641  0.2493
  126TIP3P    H  378   1.180   1.137   0.504  0.6081 -1.3824  0.5882
  127TIP3P    O  379   2.736   1.306   1.022  0.4778  0.3057 -0.0778
  127TIP3P    H  380   2.800   1.302   0.951 -0.7961 -1.0847 -1.1863
  127TIP3P    H  381   2.652   1.318   0.977 -0.1103  1.4317  1.3132
  128TIP3P    O  382   1.006   0.248   0.867 -0.1700  0.2889  1.0838
  128TIP3P    H  383   0.922   0.255   0.911 -1.0229  1.1587 -0.6375
  128TIP3P    H  384   0.987   0.202   0.786  0.5018  2.8287 -0.5699
  129TIP3P    O  385   2.051   2.640   1.235  0.1143 -0.4137 -0.5748
  129TIP3P    H  386   1.972   2.668   1.282  0.6513  1.9410 -1.0064
  129TIP3P    H  387   2.027   2.647   1.142  0.8005  0.2573 -0.7073
  130TIP3P    O  388   2.955   0.370   0.724 -0.0283 -0.2006 -0.1129
  130TIP3P    H  389   3.026   0.432   0.709 -0.0539 -0.1822 -0.1526
  130TIP3P    H  390   2.954   0.314   0.646 -0.6795  0.3948 -0.5364
  131TIP3P    O  391   1.210   0.852   0.252 -0.7849 -0.2467 -0.3336
  131TIP3P    H  392   1.135   0.850   0.193 -1.5871 -0.2196  0.6695
  131TIP3P    H  393   1.286   0.842   0.195 -1.4626  1.1159 -1.5109
  132TIP3P    O  394   1.909   1.158   0.940 -0.2072 -0.2038  0.1160
  132TIP3P    H  395   1.891   1.196   1.026 -0.3629  1.9287 -0.8333
  132TIP3P    H  396   1.824   1.126   0.910 -0.4061  0.2774  0.1684
  133TIP3P    O  397   0.175   2.149   2.541 -0.6355 -0.1368 -0.1346
  133TIP3P    H  398   0.216   2.213   2.599  0.3554 -0.7776 -0.1191
  133TIP3P    H  399   0.248   2.104   2.500 -1.3343 -0.8200 -0.6298
  134TIP3P    O  400   2.578   0.689   0.527  0.1883  0.6089  0.4147
  134TIP3P    H  401   2.542   0.652   0.607  0.0585 -0.4925 -0.1446
  134TIP3P    H  402   2.669   0.709   0.548  0.4426 -0.6540  0.5169
  135TIP3P    O  403   2.797   1.869   0.849 -0.4166  0.2079  0.0658
  135TIP3P    H  404   2.826   1.954   0.818 -0.3734  0.4069  0.6509
  135TIP3P    H  405   2.859   1.807   0.811 -0.7457  0.3832 -0.7712
  136TIP3P    O  406   0.479   1.884   1.891  0.8281 -0.1344  0.1489
  136TIP3P    H  407   0.569   1.914   1.877  1.0023  0.3309  2.2113
  136TIP3P    H  408   0.444   1.944   1.957 -0.5202 -1.2318  0.4347
  137TIP3P    O  409   1.759   1.964   0.556  0.3557  0.0352  0.2461
  137TIP3P    H  410   1.770   2.036   0.494 -0.1539 -0.5528 -0.5412
  137TIP3P    H  411   1.677   1.922   0.530  1.3071 -1.6267 -0.1475
  138TIP3P    O  412   0.877   1.748   1.348  0.2879  0.0143 -0.7556
  138TIP3P    H  413   0.923   1.800   1.415  1.1150 -1.1933 -0.3658
  138TIP3P    H  414   0.933   1.756   1.270  0.5598 -0.5094 -0.6155
  139TIP3P    O  415   0.641   1.921   1.395 -0.0923  0.3531  0.1246
  139TIP3P    H  416   0.580   1.871   1.340  0.2236  0.2852 -0.1710
  139TIP3P    H  417   0.709   1.857   1.418 -0.1955  0.3981  0.5466
  140TIP3P    O  418   2.210   2.129   2.701  0.0599 -0.5810  0.1059
  140TIP3P    H  419   2.134   2.165   2.654  0.1030  0.4229  0.7925
  140TIP3P    H  420   2.174   2.094   2.782  0.4914  1.1326  1.0701
  141TIP3P    O  421   0.439   2.777   1.537 -0.2756 -0.2267  0.3610
  141TIP3P    H  422   0.363   2.799   1.591 -1.3269 -1.0580 -0.7536
  141TIP3P    H  423   0.427   2.828   1.457  0.7598  0.2315  0.4840
  142TIP3P    O  424   0.024   3.058   0.593 -0.4390 -0.5586  0.8186
  142TIP3P    H  425   0.019   3.070   0.498  1.2300  0.3215  0.8298
  142TIP3P    H  426   0.102   3.005   0.607  0.7418  1.3721  1.8379
  143TIP3P    O  427   1.480   1.608   2.867  0.5221 -0.0235  0.4172
  143TIP3P    H  428   1.572   1.596   2.843 -0.2096 -0.8313 -2.2282
  143TIP3P    H  429   1.440   1.647   2.789 -1.1179  1.5446  2.0159
  144TIP3P    O  430   0.273   0.187   2.544  0.3328 -0.3059  0.1202
  144TIP3P    H  431   0.237   0.159   2.460 -2.9286 -1.0633  1.6755
  144TIP3P    H  432   0.302   0.107   2.586  0.4387 -0.1170  0.4089
  145TIP3P    O  433   1.435   3.109   1.735  0.4304 -0.1523 -0.3853
  145TIP3P    H  434   1.487   3.162   1.795 -0.0151  0.4267 -0.5039
  145TIP3P    H  435   1.455   3.018   1.760  1.3427  0.0627 -0.3131
  146TIP3P    O  436   1.427   2.151   2.592 -0.2021  0.0769 -0.1678
  146TIP3P    H  437   1.349   2.193   2.556  1.8064  2.6703 -1.7034
  146TIP3P    H  438   1.425   2.174   2.685 -0.9620  0.6134 -0.3095
  147TIP3P    O  439   1.725   1.809   1.786 -0.1066  0.4479  0.0162
  147TIP3P    H  440   1.680   1.748   1.728  1.0795 -0.8800  0.4914
  147TIP3P    H  441   1.814   1.815   1.751  1.1629 -1.7626  2.7207
  148TIP3P    O  442   0.281   1.396   0.558 -0.5998  0.2923  0.8938
  148TIP3P    H  443   0.312   1.485   0.538  0.0513 -0.4349 -1.5200
  148TIP3P    H  444   0.242   1.404   0.645 -0.6693  2.9741  0.6790
  149TIP3P    O  445   1.495   0.153   2.656 -0.0111 -0.1613  0.3411
  149TIP3P    H  446   1.457   0.103   2.727 -1.3286  0.7427  0.2816
  149TIP3P    H  447   1.447   0.235   2.655  1.9615  1.0318  0.2840
  150TIP3P    O  448   0.400   1.608   2.299 -0.4405 -0.0893  0.1502
  150TIP3P    H  449   0.379   1.518   2.274  1.5922 -0.9082  1.2801
  150TIP3P    H  450   0.328   1.635   2.356 -1.9294 -0.3775 -1.5447
  151TIP3P    O  451   0.825   2.295   0.694  0.0131 -0.3846 -0.2389
  151TIP3P    H  452   0.854   2.384   0.714 -0.2646  0.2701 -2.6068
  151TIP3P    H  453   0.760   2.306   0.624 -0.0690 -2.4323 -0.5052
  152TIP3P    O  454   1.921   1.452   0.155 -0.4275  0.4069  0.2121
  152TIP3P    H  455   1.825   1.449   0.153 -0.4838  1.4307  0.8531
  152TIP3P    H  456   1.941   1.504   0.233  0.6431  0.5828 -0.1759
  153TIP3P    O  457   2.012   3.060   1.757 -0.4262 -0.2771 -0.4333
  153TIP3P    H  458   2.007   3.054   1.662 -0.7365  1.3240 -0.5297
  153TIP3P    H  459   1.951   2.993   1.789 -0.9177 -0.2756 -1.3541
  154TIP3P    O  460   2.935   1.422   1.564 -0.4612 -0.1494 -0.3363
  154TIP3P    H  461   2.977   1.501   1.598  1.2412 -1.4499  0.6189
  154TIP3P    H  462   2.851   1.453   1.530  0.8025  2.3294 -1.3593
  155TIP3P    O  463   2.335   0.179   1.577  0.6372 -0.2333 -0.1763
  155TIP3P    H  464   2.297   0.243   1.637 -0.6732 -0.6884 -0.5095
  155TIP3P    H  465   2.405   0.138   1.628 -0.5559 -0.7181  1.0961
  156TIP3P    O  466   1.313   0.160   1.179 -0.1305 -0.0459 -0.2674
  156TIP3P    H  467   1.302   0.101   1.254  0.9182  0.6225  0.4132
  156TIP3P    H  468   1.361   0.107   1.115 -1.1027 -0.6469 -0.5139
  157TIP3P    O  469   1.619   1.531   1.361  0.3467  0.7182 -0.8121
  157TIP3P    H  470   1.661   1.610   1.395  0.8879 -0.5938  1.6471
  157TIP3P    H  471   1.525   1.551   1.366  0.4723  1.1237 -0.0207
  158TIP3P    O  472   1.260   0.623   1.942  0.1009 -0.7444 -0.0211
  158TIP3P    H  473   1.320   0.613   2.016  1.1044 -1.3176 -0.8851
  158TIP3P    H  474   1.287   0.554   1.881 -1.1613 -0.7166 -0.6174
  159TIP3P    O  475   1.241   0.143   0.264  0.0995 -0.0728  0.7325
  159TIP3P    H  476   1.213   0.118   0.352  2.7279  0.7606  1.8598
  159TIP3P    H  477   1.298   0.072   0.235 -2.6112 -1.5453 -1.3753
  160TIP3P    O  478   2.252   2.471   1.406 -0.1135  0.1938  0.4968
  160TIP3P    H  479   2.194   2.538   1.368  0.2426 -0.2584 -0.8919
  160TIP3P    H  480   2.193   2.399   1.429 -0.5351  1.0721  2.2506
  161TIP3P    O  481   0.589   1.430   2.550 -0.4141  0.0287 -0.7750
  161TIP3P    H  482   0.617   1.498   2.489 -0.1223  1.2922  0.7376
  161TIP3P    H  483   0.660   1.366   2.549  0.3441  0.8594 -0.5288
  162TIP3P    O  484   1.513   1.675   1.954  0.5122  0.5388 -0.5231
  162TIP3P    H  485   1.484   1.728   1.880  0.7232 -0.3822 -1.2841
  162TIP3P    H  486   1.462   1.707   2.029  0.1729  1.3623 -1.1013
  163TIP3P    O  487   0.008   2.068   2.803 -0.7344 -0.4046 -0.0999
  163TIP3P    H  488  -0.042   2.130   2.856  0.7494 -0.3350  1.2258
  163TIP3P    H  489  -0.054   2.039   2.736 -2.0248  1.0192  0.4521
  164TIP3P    O  490   2.294   2.509   1.007  0.5830  0.1926  0.5200
  164TIP3P    H  491   2.293   2.564   0.929 -0.0692  1.6189  1.5149
  164TIP3P    H  492   2.385   2.511   1.037  1.2260 -1.7884 -1.1630
  165TIP3P    O  493   2.040   1.002   0.740 -0.3980 -0.2206 -0.1594
  165TIP3P    H  494   1.969   0.986   0.678 -1.5798 -3.4597  1.8927
  165TIP3P    H  495   2.001   1.060   0.806 -0.6303 -0.6535  0.0861
  166TIP3P    O  496   0.395   1.218   1.787  0.2009  0.7435 -0.5761
  166TIP3P    H  497   0.329   1.277   1.752 -1.2954  0.1106  1.0878
  166TIP3P    H  498   0.467   1.275   1.814 -0.5488  1.6579 -0.4822
  167TIP3P    O  499   1.268   0.489   3.101 -0.0561 -0.1449 -0.3165
  167TIP3P    H  500   1.278   0.401   3.064 -0.7764 -0.3859  0.0399
  167TIP3P    H  501   1.184   0.520   3.066 -0.4297 -0.1145  0.5939
  168TIP3P    O  502   1.569   0.376   1.867  0.1994  0.0306 -0.1029
  168TIP3P    H  503   1.527   0.396   1.784  2.1449  1.6179 -0.7272
  168TIP3P    H  504   1.627   0.450   1.884  1.5452 -1.3479  1.5364
  169TIP3P    O  505   2.884   0.013   1.997 -0.3098 -0.2858 -0.0912
  169TIP3P    H  506   2.880  -0.066   2.052  1.2151 -0.2746  0.0607
  169TIP3P    H  507   2.967   0.005   1.951 -0.6419  0.7278 -0.8574
  170TIP3P    O  508   1.336   2.970   2.507 -0.2947  0.3072  0.2201
  170TIP3P    H  509   1.242   2.951   2.510 -0.0490 -0.7296  2.2129
  170TIP3P    H  510   1.355   3.006   2.594  0.9959  1.3214 -0.4712
  171TIP3P    O  511   2.394   1.715   0.020  0.6046  0.6539  0.2953
  171TIP3P    H  512   2.338   1.790   0.000  0.6193  0.1873 -1.6083
  171TIP3P    H  513   2.334   1.640   0.025  0.9756  0.2240 -1.3247
  172TIP3P    O  514   1.466   2.039   1.516  0.2475 -0.7069  0.3336
  172TIP3P    H  515   1.502   2.121   1.480  2.3135 -2.2674 -1.2837
  172TIP3P    H  516   1.408   2.067   1.587  0.2453  2.2033 -0.7590
  173TIP3P    O  517   1.999   0.645   2.744 -0.0190  0.1525 -0.1874
  173TIP3P    H  518   2.040   0.730   2.724 -0.4647  0.7882  1.5190
  173TIP3P    H  519   2.012   0.634   2.838 -3.2714  0.0946  0.2830
  174TIP3P    O  520   1.100   1.416   1.861  0.5274  0.4079 -0.4871
  174TIP3P    H  521   1.138   1.329   1.864  2.4141  1.2151  0.2518
  174TIP3P    H  522   1.130   1.452   1.778  0.5238  0.6616 -0.3792
  175TIP3P    O  523   0.555   0.232   1.759 -0.0731  0.1808  0.1974
  175TIP3P    H  524   0.646   0.201   1.762 -0.6780 -1.5962  0.3346
  175TIP3P    H  525   0.533   0.232   1.666 -0.7919 -1.9424  0.3562
  176TIP3P    O  526   2.095   2.603   1.693 -0.1129 -0.3298  0.1923
  176TIP3P    H  527   2.065   2.544   1.763 -0.0986 -2.2826 -1.4014
  176TIP3P    H  528   2.184   2.627   1.719  0.1385 -1.5709  0.5248
  177TIP3P    O  529   2.473   2.730   0.208  0.3380  0.1832 -0.1402
  177TIP3P    H  530   2.402   2.676   0.174 -0.7445  1.4934 -0.0353
  177TIP3P    H  531   2.444   2.820   0.192  1.8136  0.7379  0.2382
  178TIP3P    O  532   2.594   1.961   2.718  0.0746  0.1304 -0.2982
  178TIP3P    H  533   2.690   1.968   2.720  0.0111  1.3059 -1.3247
  178TIP3P    H  534   2.570   1.945   2.809  1.2447 -0.1870 -0.0288
  179TIP3P    O  535   0.773   0.068   1.819 -0.8262 -0.2478 -0.3662
  179TIP3P    H  536   0.866   0.090   1.820 -0.4582 -1.7753 -0.1617
  179TIP3P    H  537   0.748   0.062   1.911 -1.2535  0.6516 -0.4173
  180TIP3P    O  538   2.941   0.062   2.856  0.1305  0.0747 -0.0647
  180TIP3P    H  539   2.859   0.035   2.813 -0.4794 -0.2423  1.2799
  180TIP3P    H  540   2.990   0.107   2.787 -0.8038 -0.4975 -1.1168
  181TIP3P    O  541   1.109   2.293   1.806  0.5862  0.3495  0.3531
  181TIP3P    H  542   1.091   2.275   1.898  1.0294 -1.2293  0.1476
  181TIP3P    H  543   1.023   2.294   1.764  0.5391 -1.2384  0.3911
  182TIP3P    O  544   0.046   2.728   2.797 -0.3551  0.0444 -0.8875
  182TIP3P    H  545  -0.020   2.658   2.801 -0.2119 -0.1257 -1.5452
  182TIP3P    H  546   0.005   2.801   2.845 -1.2529  0.1240 -1.7551
  183TIP3P    O  547   0.859   1.267   0.369 -0.0713 -0.2700  0.0174
  183TIP3P    H  548   0.840   1.351   0.327  0.4705 -0.0981  0.1098
  183TIP3P    H  549   0.898   1.291   0.453 -1.3658 -0.6138  0.7324
  184TIP3P    O  550   2.181   1.621   0.674  0.7534 -0.2777  0.2740
  184TIP3P    H  551   2.099   1.664   0.649  1.1222  0.8134  0.9008
  184TIP3P    H  552   2.197   1.651   0.763  2.3709  0.3236 -0.2020
  185TIP3P    O  553   0.213   2.170   2.003 -0.0686 -0.3587 -0.1715
  185TIP3P    H  554   0.228   2.244   2.062  2.9979 -0.9102 -0.1761
  185TIP3P    H  555   0.192   2.210   1.919 -1.3521  0.4497  0.5170
  186TIP3P    O  556   1.717   0.678   2.569 -0.4659 -0.0666  0.1654
  186TIP3P    H  557   1.797   0.627   2.582  0.9696  1.3874 -2.6093
  186TIP3P    H  558   1.718   0.742   2.639  0.1397 -0.8614  0.9029
  187TIP3P    O  559   0.044   0.429   1.759 -0.1524  0.0729  0.3576
  187TIP3P    H  560   0.028   0.522   1.774  0.1481  0.6824 -2.7286
  187TIP3P    H  561  -0.042   0.388   1.771 -0.7351  1.0615 -0.3565
  188TIP3P    O  562   2.401   0.529   2.525  0.0432 -0.2670  0.4148
  188TIP3P    H  563   2.478   0.474   2.509  0.3741  0.4533 -0.5439
  188TIP3P    H  564   2.370   0.553   2.438 -3.3664 -3.3264  0.6632
  189TIP3P    O  565   0.764   1.278   2.875  0.4992  0.5557 -0.0281
  189TIP3P    H  566   0.701   1.346   2.850  0.6324  0.8916  0.5429
  189TIP3P    H  567   0.819   1.267   2.798  0.3922  0.9982 -0.1699
  190TIP3P    O  568   1.076   1.053   2.837 -0.3019 -0.2698 -0.6711
  190TIP3P    H  569   1.092   0.985   2.903  0.6983  1.1480  0.5690
  190TIP3P    H  570   1.160   1.097   2.826 -0.8281  0.4830 -1.8019
  191TIP3P    O  571   2.972   0.265   3.054  0.0018  0.2352  0.1669
  191TIP3P    H  572   3.068   0.269   3.052  0.0671 -1.0280  0.3635
  191TIP3P    H  573   2.950   0.189   3.000 -0.9826  1.6308 -1.4295
  192TIP3P    O  574   2.010   2.006   2.270 -0.2623 -0.2661 -0.1302
  192TIP3P    H  575   2.058   1.977   2.348 -1.4069  1.1830  1.1426
  192TIP3P    H  576   1.989   2.097   2.288 -1.5999 -0.2620 -1.6417
  193TIP3P    O  577   0.414   0.946   1.833  0.5443 -0.7082 -0.0224
  193TIP3P    H  578   0.351   0.939   1.905  0.0328  1.1252 -0.2622
  193TIP3P    H  579   0.406   1.037   1.804  0.4830 -1.5166 -2.6176
  194TIP3P    O  580   2.384   1.831   1.817  0.2756  0.0505 -0.0201
  194TIP3P    H  581   2.436   1.751   1.826  1.0180  0.4753 -0.5291
  194TIP3P    H  582   2.304   1.803   1.774  0.8344 -0.3040 -0.8410
  195TIP3P    O  583   0.063   1.190   0.033  0.4560  0.3194 -0.1653
  195TIP3P    H  584   0.025   1.177   0.120  1.2102 -1.9568 -0.1459
  195TIP3P    H  585   0.125   1.262   0.044  1.2956 -0.6287  1.4151
  196TIP3P    O  586   1.221   0.213   2.569  0.6886 -0.5463  0.4543
  196TIP3P    H  587   1.154   0.280   2.575 -0.5049 -1.5197 -1.4476
  196TIP3P    H  588   1.179   0.133   2.601  0.7407 -1.2871 -1.2678
  197TIP3P    O  589   2.280   0.728   0.558  0.2025  0.0257 -0.7338
  197TIP3P    H  590   2.309   0.639   0.579  1.4584  0.4330 -0.7080
  197TIP3P    H  591   2.246   0.722   0.468 -2.7190 -1.1539  0.3908
  198TIP3P    O  592   1.187   2.928   0.514 -0.0032 -0.1559 -0.3775
  198TIP3P    H  593   1.203   3.012   0.557  0.0771 -0.7122  0.7039
  198TIP3P    H  594   1.269   2.879   0.525 -0.3424 -0.6999 -0.2303
  199TIP3P    O  595   1.464   2.500   0.100 -0.3424 -0.1553 -0.5492
  199TIP3P    H  596   1.483   2.420   0.149 -2.8584 -0.7070 -0.4371
  199TIP3P    H  597   1.520   2.493   0.022  2.5423 -0.0022  1.3986
  200TIP3P    O  598   3.011   1.414   2.505 -0.2864  0.0656  0.4822
  200TIP3P    H  599   2.955   1.337   2.506  0.5706 -0.5566  1.2520
  200TIP3P    H  600   2.994   1.457   2.589  0.6822 -0.3389  0.8889
  201TIP3P    O  601   0.464   2.916   0.170 -0.7480  0.0700 -0.3777
  201TIP3P    H  602   0.519   2.948   0.098  0.2579 -2.4425 -0.7581
  201TIP3P    H  603   0.489   2.971   0.245  1.6116 -0.4053 -0.7828
  202TIP3P    O  604   2.839   0.954   0.210  0.2633  0.9145  0.4945
  202TIP3P    H  605   2.922   0.908   0.219 -0.4549 -0.6123 -0.5870
  202TIP3P    H  606   2.779   0.909   0.269 -0.1955  1.0183  0.1200
  203TIP3P    O  607   1.499   1.183   1.675  0.2501  0.1086 -0.0738
  203TIP3P    H  608   1.468   1.103   1.717  0.2564  0.4407  0.5648
  203TIP3P    H  609   1.485   1.252   1.740  0.6857  0.5491 -0.4413
  204TIP3P    O  610   1.732   0.305   2.792 -0.3159 -0.6587 -0.0637
  204TIP3P    H  611   1.785   0.364   2.738  0.0147 -0.5413  0.3929
  204TIP3P    H  612   1.694   0.244   2.729  3.1173 -2.9313 -0.1055
  205TIP3P    O  613   1.726   2.858   0.452 -0.5326  0.6571 -0.2062
  205TIP3P    H  614   1.821   2.851   0.463 -0.5759 -0.4533 -0.4138
  205TIP3P    H  615   1.697   2.911   0.527  0.1581  0.3245  0.3040
  206TIP3P    O  616   0.290   0.233   1.829 -0.2902 -0.2086  0.2755
  206TIP3P    H  617   0.383   0.222   1.809 -0.3638  0.0465 -0.2203
  206TIP3P    H  618   0.273   0.326   1.814 -1.0454 -0.5980 -1.4593
  207TIP3P    O  619   2.211   2.288   1.138 -0.2678 -0.8340 -0.6005
  207TIP3P    H  620   2.235   2.306   1.229 -3.9360 -0.9988  0.4689
  207TIP3P    H  621   2.227   2.371   1.093 -0.2602 -0.1664  0.6042
  208TIP3P    O  622   2.285   2.488   0.179  0.2310  0.4580 -0.1597
  208TIP3P    H  623   2.213   2.518   0.123  0.1871  1.3021  0.3453
  208TIP3P    H  624   2.272   2.393   0.185 -3.4886  1.0911  3.5531
  209TIP3P    O  625   0.859   2.483   0.108  0.5235  0.0879  0.0268
  209TIP3P    H  626   0.904   2.498   0.191  0.1218  0.9606  0.0888
  209TIP3P    H  627   0.835   2.570   0.078 -1.6281 -0.3947  0.2775
  210TIP3P    O  628   0.151   0.996   1.100  0.3845  0.2467  0.0408
  210TIP3P    H  629   0.210   0.931   1.062  0.7514 -0.3575  1.5909
  210TIP3P    H  630   0.100   1.029   1.026  1.7478 -0.1860 -1.1060
  211TIP3P    O  631   1.256   1.551   3.042  0.4338 -0.4046  0.3183
  211TIP3P    H  632   1.342   1.571   3.006  0.3826 -1.3075 -0.2953
  211TIP3P    H  633   1.217   1.489   2.981 -0.4280 -0.4425  0.8916
  212TIP3P    O  634   1.095   1.664   0.588 -0.3117  0.3031 -0.4862
  212TIP3P    H  635   1.062   1.735   0.643 -2.1240  0.0661 -1.2504
  212TIP3P    H  636   1.166   1.626   0.639  0.0806  2.0728  0.3367
  213TIP3P    O  637   1.673   0.991   0.974  0.0932 -0.3861  0.0596
  213TIP3P    H  638   1.633   0.919   1.024  1.0192 -0.2012  1.0920
  213TIP3P    H  639   1.628   1.069   1.006  1.6470 -0.1107  1.6551
  214TIP3P    O  640   2.389   0.195   3.080 -0.0217 -0.1634 -0.0020
  214TIP3P    H  641   2.352   0.129   3.021 -1.7789 -1.1858  2.1584
  214TIP3P    H  642   2.386   0.276   3.030  1.0050 -1.4767 -2.2572
  215TIP3P    O  643   0.559   0.688   0.721  0.3451  0.8446  0.3116
  215TIP3P    H  644   0.637   0.659   0.674 -0.3451 -0.8474  0.1919
  215TIP3P    H  645   0.497   0.712   0.652  0.6157  1.8449  0.4048
  216TIP3P    O  646   2.504   2.400   1.372 -0.0479  0.0668  0.2736
  216TIP3P    H  647   2.512   2.423   1.279  2.9593  1.5124  0.8155
  216TIP3P    H  648   2.417   2.429   1.397 -1.5189 -1.7892 -2.4582
  217TIP3P    O  649   2.304   0.491   0.157 -0.1506  0.2419  0.3120
  217TIP3P    H  650   2.269   0.565   0.206 -1.1080 -0.2615  0.4061
  217TIP3P    H  651   2.396   0.487   0.183 -0.3666  0.6949  1.1851
  218TIP3P    O  652   0.256   1.393   0.028 -0.0106 -1.0096 -0.2851
  218TIP3P    H  653   0.186   1.452  -0.001  0.9128  0.3632  0.2352
  218TIP3P    H  654   0.324   1.402  -0.039  0.4527 -0.8927  0.2009
  219TIP3P    O  655   0.925   2.661   1.042  0.3719  0.9131  0.2209
  219TIP3P    H  656   0.879   2.744   1.051  0.0515  1.2056 -3.6326
  219TIP3P    H  657   0.860   2.595   1.065 -0.4362  1.5673 -0.1710
  220TIP3P    O  658   1.571   0.445   2.531 -0.3294  0.0850  0.1212
  220TIP3P    H  659   1.501   0.462   2.595 -1.9776  1.3007 -1.9453
  220TIP3P    H  660   1.639   0.508   2.553 -0.9230  0.5704  0.5958
  221TIP3P    O  661   0.255   0.710   2.303 -0.2374 -0.1139 -0.2114
  221TIP3P    H  662   0.193   0.637   2.302 -1.7234  1.1330 -0.4633
  221TIP3P    H  663   0.291   0.710   2.391 -0.7658 -0.6913  0.0059
  222TIP3P    O  664   0.595   1.332   1.995 -0.3214  0.0787  0.2929
  222TIP3P    H  665   0.683   1.355   2.023 -0.2790  1.0798 -0.6239
  222TIP3P    H  666   0.546   1.414   1.999 -1.0885 -0.3778  0.3518
  223TIP3P    O  667   0.679   1.060   0.293  0.5412 -0.1793  0.3450
  223TIP3P    H  668   0.615   1.084   0.226  1.1350 -0.7054 -0.4166
  223TIP3P    H  669   0.738   1.135   0.298  2.4335 -1.4718 -2.0777
  224TIP3P    O  670   0.841   0.009   0.406 -0.3181  0.1872 -0.0075
  224TIP3P    H  671   0.875   0.097   0.390 -0.9140  1.3250  4.3396
  224TIP3P    H  672   0.746   0.018   0.396 -0.2757 -0.2953 -0.8708
  225TIP3P    O  673   1.403   0.287   2.334 -0.1186  0.6073 -0.6594
  225TIP3P    H  674   1.336   0.283   2.403  1.1898  0.1768  0.6164
  225TIP3P    H  675   1.476   0.335   2.373  0.7779  0.0686 -1.6223
  226TIP3P    O  676   0.949   0.586   1.042  0.1004  0.5265 -0.0975
  226TIP3P    H  677   1.027   0.637   1.021  0.2382  0.8395  1.1284
  226TIP3P    H  678   0.970   0.542   1.124 -0.9855  0.5392  0.1963
  227TIP3P    O  679   2.804   1.289   0.259  0.0395  0.0437 -0.3873
  227TIP3P    H  680   2.846   1.208   0.232  0.8028  0.3795 -0.2138
  227TIP3P    H  681   2.761   1.267   0.342  1.7178  0.2591  0.5675
  228TIP3P    O  682   0.281   2.922   0.564 -0.0204 -0.1505 -0.7370
  228TIP3P    H  683   0.284   2.956   0.475  0.8776  1.0087 -0.2640
  228TIP3P    H  684   0.280   2.827   0.553 -0.9571 -0.0141 -2.0069
  229TIP3P    O  685   0.815   2.537   1.675  0.2232 -0.2687  0.0582
  229TIP3P    H  686   0.862   2.567   1.753  0.1774 -0.3341  0.1114
  229TIP3P    H  687   0.781   2.616   1.635 -0.3123 -0.2861  0.4623
  230TIP3P    O  688   2.144   1.922   2.499 -0.5719 -0.3306  0.3744
  230TIP3P    H  689   2.149   1.987   2.568 -0.7519 -0.2637  0.3259
  230TIP3P    H  690   2.233   1.889   2.490 -0.4430  0.0459  0.2650
  231TIP3P    O  691   1.843   2.890   1.614  0.6728 -0.7101 -0.5188
  231TIP3P    H  692   1.882   2.806   1.590  1.1723 -0.0875 -1.9147
  231TIP3P    H  693   1.765   2.866   1.664  1.7122 -1.9780  0.5333
  232TIP3P    O  694   1.333   1.595   1.071  0.3347  0.2565 -0.0892
  232TIP3P    H  695   1.321   1.589   0.977 -0.5313  1.0002 -0.0396
  232TIP3P    H  696   1.427   1.603   1.083  0.4175  0.5578 -0.9147
  233TIP3P    O  697   2.525   0.922   0.872  0.5313  0.2184  0.0180
  233TIP3P    H  698   2.587   0.942   0.941  1.7974 -0.5228 -0.8798
  233TIP3P    H  699   2.523   0.826   0.869 -1.1864  0.2158  0.4960
  234TIP3P    O  700   2.983   2.619   1.121 -0.7655 -0.1327  0.3252
  234TIP3P    H  701   3.047   2.552   1.147 -0.3287  1.1922  2.8471
  234TIP3P    H  702   3.036   2.689   1.083 -1.1491 -0.8469 -1.5784
  235TIP3P    O  703   2.469   2.529   0.579 -0.2994  0.0313  0.4407
  235TIP3P    H  704   2.444   2.601   0.637 -1.0263  0.5544 -0.5130
  235TIP3P    H  705   2.488   2.456   0.638 -1.5550  0.3970  1.3104
  236TIP3P    O  706   1.469   0.946   0.360  0.1434  0.2732  0.5009
  236TIP3P    H  707   1.441   0.985   0.277 -0.5340  0.7884  0.9678
  236TIP3P    H  708   1.559   0.977   0.372 -0.2798  1.4094  0.7066
  237TIP3P    O  709   0.736   2.213   0.211  0.6706 -0.0135  0.3866
  237TIP3P    H  710   0.685   2.256   0.142  0.7320  1.1243  1.0250
  237TIP3P    H  711   0.821   2.196   0.172  0.0680 -1.2003 -0.4386
  238TIP3P    O  712   0.553   0.728   1.982  0.2345 -0.3292 -0.1396
  238TIP3P    H  713   0.501   0.776   1.919 -0.4111 -1.6002 -0.5950
  238TIP3P    H  714   0.596   0.659   1.931 -0.6391 -1.6412  0.8469
  239TIP3P    O  715   1.480   2.766   0.571  0.2959  0.5362  0.3914
  239TIP3P    H  716   1.570   2.737   0.555  0.2757  0.3222  0.6651
  239TIP3P    H  717   1.453   2.719   0.650  0.1065  0.9589  0.5831
  240TIP3P    O  718   0.283   3.004   2.519  0.3670 -0.9684 -0.1525
  240TIP3P    H  719   0.323   2.952   2.588  1.9333  0.3890 -0.0018
  240TIP3P    H  720   0.194   2.970   2.512  0.7954 -2.4204  1.1873
  241TIP3P    O  721   2.602   0.359   2.898  0.1850  0.1632  0.2298
  241TIP3P    H  722   2.551   0.437   2.917 -0.3972  0.4473 -2.3326
  241TIP3P    H  723   2.684   0.392   2.862  1.0515 -0.3719  1.6530
  242TIP3P    O  724   1.162   2.081   1.247 -0.7999  0.1460 -0.1067
  242TIP3P    H  725   1.106   2.144   1.291  0.0973  2.5006 -2.1797
  242TIP3P    H  726   1.108   2.045   1.177 -0.3422  1.1106 -0.9884
  243TIP3P    O  727   0.535   0.440   2.907 -0.1702  0.2441  0.1240
  243TIP3P    H  728   0.487   0.398   2.835  1.0081 -1.2473  0.1707
  243TIP3P    H  729   0.615   0.473   2.866 -0.0431  0.4266  0.5205
  244TIP3P    O  730   2.832   0.234   2.152 -0.0649 -0.5719  0.0672
  244TIP3P    H  731   2.818   0.149   2.112  0.0055 -0.0545 -1.0667
  244TIP3P    H  732   2.914   0.226   2.200  0.3375 -0.9048 -0.6816
  245TIP3P    O  733   2.381   0.514   1.585  0.5092  0.3056 -0.4680
  245TIP3P    H  734   2.348   0.488   1.499 -1.1412  1.0375 -0.0681
  245TIP3P    H  735   2.359   0.607   1.592 -0.6658 -0.0958  1.3316
  246TIP3P    O  736   0.722   2.758   1.564 -0.7628  0.0535 -0.3908
  246TIP3P    H  737   0.628   2.770   1.582 -0.9552  1.2647 -2.0978
  246TIP3P    H  738   0.747   2.837   1.517  0.8148 -0.8866 -1.1419
  247TIP3P    O  739   0.540   1.366   1.160 -0.4141  0.2079 -0.3939
  247TIP3P    H  740   0.563   1.306   1.089 -0.5075  0.0701 -0.3063
  247TIP3P    H  741   0.617   1.369   1.216 -0.4355  0.1162 -0.3603
  248TIP3P    O  742   1.415   2.812   2.882  0.2633  0.3090  0.1872
  248TIP3P    H  743   1.433   2.814   2.976  0.2708  0.5893  0.1821
  248TIP3P    H  744   1.461   2.734   2.850  2.0805  1.4145  0.0500
  249TIP3P    O  745   0.421   1.617   1.189  0.2113 -0.0757 -0.1620
  249TIP3P    H  746   0.487   1.633   1.257 -0.2572  1.7692 -0.0973
  249TIP3P    H  747   0.427   1.524   1.171  1.6554 -0.2461  1.0705
  250TIP3P    O  748   1.977   1.880   0.869 -0.5084 -0.1263 -0.2292
  250TIP3P    H  749   1.980   1.960   0.921 -0.1036  0.0004 -0.4422
  250TIP3P    H  750   1.938   1.814   0.927 -1.3503  0.3593 -0.2431
  251TIP3P    O  751   2.644   1.446   2.537 -0.0178  0.0544 -0.5572
  251TIP3P    H  752   2.605   1.371   2.492 -0.8994  0.8904 -1.1942
  251TIP3P    H  753   2.710   1.407   2.595 -3.3757 -1.6026  2.2996
  252TIP3P    O  754   1.575   1.549   0.023  0.0271 -0.3980 -0.4376
  252TIP3P    H  755   1.570   1.610  -0.050  0.4250 -0.3411 -0.4180
  252TIP3P    H  756   1.532   1.470  -0.009  0.2528 -0.3929 -0.7544
  253TIP3P    O  757   2.951   2.661   2.973  0.3474 -0.0510  0.2969
  253TIP3P    H  758   2.870   2.639   3.020  0.3435  1.1336  0.8702
  253TIP3P    H  759   2.975   2.748   3.006  2.2960 -0.7260  0.7415
  254TIP3P    O  760   1.198   0.428   0.957 -0.4490 -0.3676  0.5182
  254TIP3P    H  761   1.150   0.489   1.013 -1.2635  1.6374 -2.2837
  254TIP3P    H  762   1.133   0.362   0.933 -0.0892 -1.2504  1.9148
  255TIP3P    O  763   0.182   1.152   2.024  0.1069  0.3887 -0.4844
  255TIP3P    H  764   0.160   1.082   2.085  0.7301 -0.2564 -0.9960
  255TIP3P    H  765   0.255   1.198   2.066 -1.1833  1.5793  0.4881
  256TIP3P    O  766   2.773   0.136   1.340  0.3339 -0.1501 -0.2207
  256TIP3P    H  767   2.820   0.083   1.405 -1.3138 -0.1109  1.0303
  256TIP3P    H  768   2.798   0.099   1.255  0.6188 -1.7520  0.5553
  257TIP3P    O  769   1.581   1.941   1.210  0.4474  0.7356 -0.1033
  257TIP3P    H  770   1.508   1.933   1.272 -0.0336  2.6339 -0.3879
  257TIP3P    H  771   1.649   1.988   1.259  1.2343 -0.4451 -0.0510
  258TIP3P    O  772   1.034   2.126   2.642  0.4958  0.7728 -0.2675
  258TIP3P    H  773   1.034   2.140   2.737  1.1279  0.1190 -0.1692
  258TIP3P    H  774   1.077   2.204   2.607 -2.2253  2.3704 -0.2413
  259TIP3P    O  775   0.373   2.514   1.437 -0.2322 -0.2915 -0.2198
  259TIP3P    H  776   0.360   2.587   1.499  0.4350  0.2260 -0.6862
  259TIP3P    H  777   0.453   2.536   1.391 -0.4872 -0.9109 -0.9591
  260TIP3P    O  778   1.420   1.053   2.939  0.0048  0.3202  0.2301
  260TIP3P    H  779   1.454   1.093   2.858  0.3479 -0.2043  0.1187
  260TIP3P    H  780   1.384   0.969   2.911  0.1804  0.1091  0.6370
  261TIP3P    O  781   2.673   1.180   1.908  0.1969 -0.2092 -0.0086
  261TIP3P    H  782   2.738   1.126   1.862  0.5981  1.6624 -1.7506
  261TIP3P    H  783   2.701   1.179   1.999  1.9418 -0.4825 -0.5314
  262TIP3P    O  784   1.407   0.030   0.953 -0.6984  0.4794 -0.0328
  262TIP3P    H  785   1.491  -0.004   0.986 -0.5802  0.3681 -0.4450
  262TIP3P    H  786   1.424   0.048   0.860 -1.8467 -1.8625 -0.7098
  263TIP3P    O  787   2.320   1.163   1.410 -0.2622 -0.7249  0.2370
  263TIP3P    H  788   2.299   1.154   1.503  0.6550  3.2395  0.8967
  263TIP3P    H  789   2.236   1.168   1.366 -0.7034  1.0281  1.2700
  264TIP3P    O  790   1.342   2.148   1.709  0.4366  0.4493 -0.0658
  264TIP3P    H  791   1.264   2.182   1.753  0.4929 -2.1393  2.1745
  264TIP3P    H  792   1.415   2.193   1.751  0.3396  0.1361  0.4408
  265TIP3P    O  793   1.106   2.776   1.605  0.1698 -0.2287  0.8077
  265TIP3P    H  794   1.137   2.693   1.643 -0.4297 -1.0392 -0.4462
  265TIP3P    H  795   1.033   2.802   1.661  1.7667  0.6231  2.5491
  266TIP3P    O  796   1.517   2.789   0.025 -0.0159 -0.3772 -0.5381
  266TIP3P    H  797   1.557   2.707  -0.005 -0.5326 -0.6761 -0.4161
  266TIP3P    H  798   1.476   2.766   0.108  2.3258  0.7062  0.9435
  267TIP3P    O  799   2.187   0.711   0.271  0.9127  0.3700 -0.1615
  267TIP3P    H  800   2.194   0.776   0.201  1.4361  0.8293  0.3088
  267TIP3P    H  801   2.098   0.679   0.264  1.0064  0.2830 -1.1537
  268TIP3P    O  802   0.219   1.247   2.589 -0.5638  0.4604 -0.2543
  268TIP3P    H  803   0.161   1.229   2.515 -0.8717  0.8079 -0.1001
  268TIP3P    H  804   0.288   1.181   2.582 -0.2550  0.8712 -1.2015
  269TIP3P    O  805   3.085   2.383   0.767  0.1114  0.0869  0.2367
  269TIP3P    H  806   3.176   2.407   0.753 -0.0156  0.7227  0.4778
  269TIP3P    H  807   3.088   2.304   0.820  0.5046  0.8222  1.3186
  270TIP3P    O  808   0.369   1.012   2.554 -0.2747  0.3179 -0.6843
  270TIP3P    H  809   0.370   1.002   2.459 -0.7588 -0.1570 -0.6385
  270TIP3P    H  810   0.462   1.019   2.578 -0.1267 -0.0537 -1.1371
  271TIP3P    O  811   0.321   3.098   2.072 -0.1485  0.2355 -0.4032
  271TIP3P    H  812   0.237   3.066   2.103  1.4027 -0.6313  3.1145
  271TIP3P    H  813   0.327   3.188   2.104  0.1084  0.4412 -1.0055
  272TIP3P    O  814   0.807   1.208   1.692  0.3647  0.2859 -0.1989
  272TIP3P    H  815   0.787   1.187   1.783  0.1634  2.3437  0.2649
  272TIP3P    H  816   0.733   1.262   1.664  0.9057  0.4641 -1.2778
  273TIP3P    O  817   0.700   0.821   0.461  0.4404 -0.1270 -0.0008
  273TIP3P    H  818   0.665   0.818   0.372 -1.8822  0.0032  0.8586
  273TIP3P    H  819   0.662   0.900   0.499 -0.1768 -1.1934  1.6925
  274TIP3P    O  820   1.388   1.475   0.440  0.1924  0.0560 -0.2220
  274TIP3P    H  821   1.421   1.487   0.530 -0.8648 -1.1816  0.3416
  274TIP3P    H  822   1.362   1.563   0.412 -0.8335  0.2269  1.2251
  275TIP3P    O  823   1.612   2.582   2.962 -0.8493 -0.1006 -0.7313
  275TIP3P    H  824   1.599   2.571   2.868  0.9864 -1.5637 -0.8452
  275TIP3P    H  825   1.698   2.544   2.979 -1.4926 -0.5545  1.6790
  276TIP3P    O  826   1.682   2.172   2.281 -0.1110 -0.4666  0.1877
  276TIP3P    H  827   1.694   2.085   2.243 -1.2366  0.2769 -1.9270
  276TIP3P    H  828   1.665   2.155   2.374 -3.7697 -2.7738 -0.8056
  277TIP3P    O  829   2.573   1.781   1.549 -0.0575  0.2254  0.4576
  277TIP3P    H  830   2.499   1.837   1.526 -0.1967 -0.1282  0.0389
  277TIP3P    H  831   2.548   1.740   1.631  0.1520  0.9706  0.9002
  278TIP3P    O  832   0.737   2.729   0.105 -0.3329  0.0609 -0.3793
  278TIP3P    H  833   0.730   2.752   0.198 -1.4033 -2.1919  0.1238
  278TIP3P    H  834   0.692   2.801   0.061 -0.7259  0.6482  0.9249
  279TIP3P    O  835   2.063   0.990   0.425  0.4608 -0.5869 -0.0461
  279TIP3P    H  836   2.051   1.081   0.397  0.0904 -0.9384 -1.0355
  279TIP3P    H  837   2.121   0.952   0.360 -0.4306 -1.4211 -0.3693
  280TIP3P    O  838   1.917   1.668   1.114 -0.2473 -0.5901 -0.1168
  280TIP3P    H  839   1.959   1.602   1.169  1.3738 -1.2634 -2.0765
  280TIP3P    H  840   1.904   1.743   1.172  0.1347 -1.7680  1.5148
  281TIP3P    O  841   1.322   1.211   0.952  0.0708 -0.6793 -0.2381
  281TIP3P    H  842   1.290   1.279   1.011  1.4554  0.2193 -0.5058
  281TIP3P    H  843   1.416   1.205   0.970  0.8156  0.6528 -3.3668
  282TIP3P    O  844   1.211   2.668   2.184  0.3543  0.1280 -0.0473
  282TIP3P    H  845   1.230   2.655   2.277  1.7444  0.3900 -0.2810
  282TIP3P    H  846   1.271   2.737   2.156 -1.2730  1.2756 -0.7405
  283TIP3P    O  847   2.639   2.000   0.559 -0.4402 -0.5580  0.2552
  283TIP3P    H  848   2.618   2.043   0.642  2.6324  0.2166  0.6849
  283TIP3P    H  849   2.599   2.056   0.492  0.5795  1.0852  0.9963
  284TIP3P    O  850   2.501   2.482   3.097  0.1403  0.5292 -0.3845
  284TIP3P    H  851   2.458   2.475   3.012  0.5769 -3.3335 -0.3445
  284TIP3P    H  852   2.437   2.449   3.160  0.9361  0.5183  0.4338
  285TIP3P    O  853   1.262   1.558   0.766 -0.3924 -0.2519 -0.3596
  285TIP3P    H  854   1.323   1.631   0.755 -1.0512  0.4837  0.8418
  285TIP3P    H  855   1.316   1.479   0.758  0.5849  0.3900 -0.0173
  286TIP3P    O  856   1.073   0.494   1.262  0.6452 -0.0657 -0.0765
  286TIP3P    H  857   1.165   0.472   1.276  1.4031  1.4708 -2.3244
  286TIP3P    H  858   1.047   0.540   1.342  1.8246 -0.4779  0.5556
  287TIP3P    O  859   1.318   2.135   2.015  0.3318  0.2870 -0.4389
  287TIP3P    H  860   1.380   2.175   1.954  0.5975  1.6026  0.6623
  287TIP3P    H  861   1.321   2.192   2.092 -0.7294 -0.7956  0.4098
  288TIP3P    O  862   1.603   2.551   1.942 -0.4042 -0.0826 -0.0579
  288TIP3P    H  863   1.613   2.469   1.894 -0.5431 -0.3690  0.4018
  288TIP3P    H  864   1.512   2.551   1.972 -1.1126  1.3293 -2.0432
  289TIP3P    O  865   1.713   0.672   0.732  0.3075 -0.4320  0.2381
  289TIP3P    H  866   1.803   0.675   0.698  0.3401 -2.5426  0.0364
  289TIP3P    H  867   1.716   0.603   0.799 -0.8418  0.4574  1.2149
  290TIP3P    O  868   2.640   1.942   1.779 -0.0324 -0.5208  0.5992
  290TIP3P    H  869   2.642   1.990   1.696 -0.4787 -2.4961 -0.5806
  290TIP3P    H  870   2.554   1.900   1.780 -0.4687  0.3925  2.6035
  291TIP3P    O  871   2.086   1.981   1.330 -0.3622 -0.7404 -0.4616
  291TIP3P    H  872   2.012   1.924   1.351  0.1446 -2.2179 -2.5408
  291TIP3P    H  873   2.123   1.944   1.250  2.0300  0.5549 -0.0020
  292TIP3P    O  874   2.192   3.017   1.266  0.4555 -0.1407 -0.8357
  292TIP3P    H  875   2.199   2.932   1.311  0.9995 -0.0106 -0.6720
  292TIP3P    H  876   2.279   3.033   1.231  0.8083  1.1545  0.5986
  293TIP3P    O  877   2.003   0.166   1.985  0.4680 -0.2075  0.0360
  293TIP3P    H  878   2.088   0.125   1.971 -0.2212 -1.4585 -0.4563
  293TIP3P    H  879   1.940   0.094   1.983 -0.5710  0.6630  0.7648
  294TIP3P    O  880   1.622   2.889   0.932  0.3498 -0.9409  0.0156
  294TIP3P    H  881   1.705   2.882   0.886  0.0186 -0.0327 -0.7428
  294TIP3P    H  882   1.642   2.864   1.022  1.8122  0.9528  0.2420
  295TIP3P    O  883   0.805   2.100   2.954 -0.2320 -0.1421 -0.3714
  295TIP3P    H  884   0.870   2.165   2.928 -0.5330  0.9035  1.3605
  295TIP3P    H  885   0.763   2.074   2.872  0.9006  0.7545 -1.2584
  296TIP3P    O  886   2.526   0.564   2.068 -0.1675 -0.2949  0.1798
  296TIP3P    H  887   2.524   0.506   2.144  0.9625  0.9268  1.1668
  296TIP3P    H  888   2.452   0.536   2.015  0.6259 -2.9433  0.3922
  297TIP3P    O  889   1.550   0.686   2.239 -0.1073 -0.4586  0.7434
  297TIP3P    H  890   1.546   0.623   2.167 -1.6577 -0.7262  1.0579
  297TIP3P    H  891   1.624   0.656   2.293  1.2689 -0.0633 -0.8865
  298TIP3P    O  892   0.466   1.597   2.026 -0.6582 -0.4760 -0.3919
  298TIP3P    H  893   0.489   1.690   2.014 -0.7625 -0.3287  0.4976
  298TIP3P    H  894   0.420   1.595   2.110 -1.2771 -1.2295 -0.7457
  299TIP3P    O  895   1.878   2.914   0.081  0.2062  0.5620  0.1772
  299TIP3P    H  896   1.970   2.916   0.055  0.0073 -0.2924 -0.6202
  299TIP3P    H  897   1.865   2.994   0.131  1.4338  0.5985  0.4460
  300TIP3P    O  898   0.322   1.136   0.522 -0.2885 -0.1087 -0.0799
  300TIP3P    H  899   0.280   1.122   0.607 -2.0000 -0.8976 -1.0360
  300TIP3P    H  900   0.318   1.230   0.509  1.2049  0.1674  1.3185
  301TIP3P    O  901   2.691   0.994   2.257  0.3502  0.1640  0.7393
  301TIP3P    H  902   2.663   0.947   2.178  2.5375 -0.4857  0.3269
  301TIP3P    H  903   2.670   0.933   2.329 -0.7632  0.3662  0.6065
  302TIP3P    O  904   0.256   0.418   2.818  0.0747  0.0023  0.4336
  302TIP3P    H  905   0.231   0.504   2.785 -0.1579 -0.0772  0.3947
  302TIP3P    H  906   0.265   0.364   2.739  1.2843  0.2625  0.3949
  303TIP3P    O  907   1.670   1.103   2.037 -0.2656 -0.7303 -0.2789
  303TIP3P    H  908   1.700   1.163   2.104  0.5714 -1.9126  0.4326
  303TIP3P    H  909   1.587   1.069   2.071 -0.6310 -0.1520 -0.5827
  304TIP3P    O  910   1.473   0.057   1.449  0.4844 -0.2414  0.0161
  304TIP3P    H  911   1.429   0.037   1.532 -0.5424  0.1902 -0.4311
  304TIP3P    H  912   1.486  -0.028   1.408  1.3700 -0.5027  0.7944
  305TIP3P    O  913   1.469   3.034   0.694  0.0906  0.7949 -0.7657
  305TIP3P    H  914   1.453   2.941   0.709 -0.4560  0.9424 -0.4236
  305TIP3P    H  915   1.560   3.038   0.662  0.0574  0.1318 -0.9543
  306TIP3P    O  916   2.594   1.696   0.978  0.6932  0.4906  0.1986
  306TIP3P    H  917   2.512   1.728   0.941  0.7420  0.3315 -0.0487
  306TIP3P    H  918   2.659   1.761   0.951  0.6815  0.5171  0.2341
  307TIP3P    O  919   2.024   1.571   2.720  0.3806 -0.3857  0.3012
  307TIP3P    H  920   2.031   1.520   2.639 -1.4895 -1.8700  1.0287
  307TIP3P    H  921   2.091   1.534   2.777  1.1735  0.1311 -0.2871
  308TIP3P    O  922   3.038   1.057   2.162  0.0206 -0.1391  0.1966
  308TIP3P    H  923   2.974   1.115   2.122  0.3134 -0.3087 -0.5119
  308TIP3P    H  924   3.014   0.970   2.133 -0.0877 -0.3251  0.8244
  309TIP3P    O  925   0.040   2.803   0.974 -0.0299 -0.1849  0.2397
  309TIP3P    H  926   0.060   2.756   0.894 -1.2828  1.6535 -1.1997
  309TIP3P    H  927   0.125   2.826   1.011  0.5434 -0.8588 -0.6596
  310TIP3P    O  928   0.908   2.620   0.390  0.2815 -0.1751 -0.1410
  310TIP3P    H  929   0.842   2.557   0.417  0.1784 -0.1824 -0.4092
  310TIP3P    H  930   0.862   2.703   0.386  0.6608  0.1226  1.2773
  311TIP3P    O  931   0.645   2.107   0.444 -0.4160 -0.8962 -0.4671
  311TIP3P    H  932   0.648   2.141   0.354 -4.5578 -0.2927 -0.4691
  311TIP3P    H  933   0.598   2.024   0.437 -1.4610 -0.4578  1.2393
  312TIP3P    O  934   2.827   2.435   1.690 -0.7073  0.0117  0.0534
  312TIP3P    H  935   2.875   2.392   1.760 -1.5697  0.4205  0.9021
  312TIP3P    H  936   2.894   2.482   1.640 -0.4240  2.1507  2.3524
  313TIP3P    O  937   1.173   2.813   2.746  0.0213  0.2337  0.5394
  313TIP3P    H  938   1.255   2.847   2.781  1.1665  0.3302 -2.1262
  313TIP3P    H  939   1.112   2.886   2.754  0.4628  0.5087  1.5531
  314TIP3P    O  940   2.676   2.257   1.139 -0.3995 -0.4164 -0.1977
  314TIP3P    H  941   2.702   2.279   1.229 -0.0942 -1.4400 -0.0243
  314TIP3P    H  942   2.693   2.163   1.132 -0.3526 -0.3296 -1.3513
  315TIP3P    O  943   0.529   1.679   0.235  0.2944 -0.0861  0.0233
  315TIP3P    H  944   0.499   1.739   0.303  0.7018  0.2728 -0.1117
  315TIP3P    H  945   0.450   1.658   0.185  0.2196  0.6726 -0.1869
  316TIP3P    O  946   3.060   1.715   0.482 -0.1655 -0.0766  0.5157
  316TIP3P    H  947   3.060   1.643   0.545 -1.3987 -0.9901 -0.4963
  316TIP3P    H  948   2.980   1.763   0.500  0.1258  0.4297  0.4842
  317TIP3P    O  949   1.288   0.297   0.711  0.7487 -0.4190 -0.3098
  317TIP3P    H  950   1.300   0.313   0.804 -1.0417 -0.1532 -0.1181
  317TIP3P    H  951   1.344   0.362   0.668 -0.2336  1.0195  0.5626
  318TIP3P    O  952   1.353   2.617   2.440 -0.4304  0.5563  0.0107
  318TIP3P    H  953   1.422   2.558   2.410 -2.6029 -2.6712  1.0270
  318TIP3P    H  954   1.399   2.695   2.471  2.4943 -0.1642 -2.2634
  319TIP3P    O  955   1.610   2.535   2.682 -0.1459  0.0302 -0.0940
  319TIP3P    H  956   1.599   2.616   2.633  2.2202  1.0696  1.0723
  319TIP3P    H  957   1.681   2.489   2.637  1.0933  0.3523  1.5000
  320TIP3P    O  958   2.167   0.668   1.934 -0.2727  0.5937 -0.1046
  320TIP3P    H  959   2.091   0.638   1.884 -1.0797  1.5482  0.5412
  320TIP3P    H  960   2.238   0.609   1.907 -0.6006  1.2982 -2.6276
  321TIP3P    O  961   1.985   2.102   1.023  0.3658  0.7818 -0.9511
  321TIP3P    H  962   1.944   2.107   1.109 -1.8731  1.0975 -1.9875
  321TIP3P    H  963   2.057   2.165   1.028  1.3629 -0.4956  1.2364
  322TIP3P    O  964   1.556   0.809   1.557  0.1727  0.5586  0.1634
  322TIP3P    H  965   1.587   0.866   1.487  3.5646  1.9928  2.6824
  322TIP3P    H  966   1.463   0.830   1.566  0.3034  2.2489 -2.1126
  323TIP3P    O  967   0.070   1.593   3.091 -0.4313  0.2138 -0.3707
  323TIP3P    H  968   0.072   1.609   2.997 -1.6738  2.5429 -0.0388
  323TIP3P    H  969  -0.020   1.611   3.117 -0.7035 -2.7304  0.9029
  324TIP3P    O  970   1.105   1.499   0.143 -0.6219 -0.5140  0.4788
  324TIP3P    H  971   1.159   1.525   0.069 -0.2039 -0.3102  0.8534
  324TIP3P    H  972   1.103   1.576   0.200 -0.3512 -0.9094  1.0251
  325TIP3P    O  973   2.389   1.631   2.720  0.1572  0.3338 -0.3068
  325TIP3P    H  974   2.449   1.567   2.682  0.9763  0.5618  0.5781
  325TIP3P    H  975   2.359   1.684   2.646  0.8062  0.0114 -0.8015
  326TIP3P    O  976   0.554   0.193   1.465 -0.2152  0.7901 -0.2201
  326TIP3P    H  977   0.636   0.241   1.454 -0.8570  1.7260 -0.9302
  326TIP3P    H  978   0.487   0.250   1.428 -1.2416  0.1825  0.6690
  327TIP3P    O  979   0.653   1.017   2.522  0.4013  0.3707 -0.5718
  327TIP3P    H  980   0.642   0.928   2.488 -1.4748 -0.4241  1.9920
  327TIP3P    H  981   0.732   1.012   2.576  0.4351  0.3124 -0.6259
  328TIP3P    O  982   1.517   2.076   2.870  0.0260 -0.0276 -0.0237
  328TIP3P    H  983   1.487   2.165   2.888 -1.8238 -0.4038 -1.1246
  328TIP3P    H  984   1.556   2.046   2.953 -0.5716  1.3133  0.7437
  329TIP3P    O  985   0.995   1.781   1.693  0.0445 -0.9083  0.6436
  329TIP3P    H  986   0.993   1.845   1.622 -2.9878  1.6556  2.8876
  329TIP3P    H  987   1.059   1.815   1.755 -0.2246 -1.0089  0.9794
  330TIP3P    O  988   0.512   0.029   0.903 -0.5812  0.0496 -0.1974
  330TIP3P    H  989   0.595  -0.009   0.933 -1.2021 -0.1836  1.2438
  330TIP3P    H  990   0.456  -0.046   0.886 -1.0907  0.2594  0.5498
  331TIP3P    O  991   0.211   0.926   1.432  0.3116 -0.1791  0.3633
  331TIP3P    H  992   0.147   0.906   1.501 -0.0751 -0.9922 -0.2243
  331TIP3P    H  993   0.176   1.004   1.389  0.1692 -0.1000  0.6201
  332TIP3P    O  994   1.206   0.596   1.529  0.1966 -0.0227  0.1944
  332TIP3P    H  995   1.248   0.558   1.607  1.9733  0.1117 -0.6703
  332TIP3P    H  996   1.121   0.553   1.525  0.1384 -0.1359  2.1353
  333TIP3P    O  997   0.847   1.515   1.952  1.1849 -0.8675 -0.5067
  333TIP3P    H  998   0.789   1.542   1.881 -1.1127 -1.6586  1.0081
  333TIP3P    H  999   0.930   1.498   1.909  0.1373 -0.3669 -2.8586
  334TIP3P    O 1000   2.847   2.422   0.351  0.0700 -0.3179  0.2613
  334TIP3P    H 1001   2.779   2.489   0.347 -0.0207 -0.4276 -0.0468
  334TIP3P    H 1002   2.806   2.344   0.315  0.3840 -0.3633 -0.0011
  335TIP3P    O 1003   0.248   0.294   0.154  0.2737  0.7217 -0.5775
  335TIP3P    H 1004   0.226   0.254   0.070 -2.0840 -1.1983  0.8879
  335TIP3P    H 1005   0.331   0.340   0.138  1.0587 -1.5019 -3.3518
  336TIP3P    O 1006   2.471   0.949   0.591 -0.4669 -0.0585 -0.1852
  336TIP3P    H 1007   2.500   0.931   0.680  0.3176  0.3403 -0.3548
  336TIP3P    H 1008   2.430   0.868   0.562  1.4945 -1.0191 -0.3424
  337TIP3P    O 1009   1.754   1.460   0.981 -0.8389 -0.1149  0.3571
  337TIP3P    H 1010   1.715   1.529   1.035  0.1323 -0.1018  1.0644
  337TIP3P    H 1011   1.847   1.463   1.002 -0.5544 -0.6041 -0.7873
  338TIP3P    O 1012   2.060   2.285   1.405  0.9971 -0.0261 -0.5184
  338TIP3P    H 1013   2.066   2.190   1.396 -0.0029 -0.3254  1.7741
  338TIP3P    H 1014   1.967   2.305   1.403  1.1111  0.7174  0.6829
  339TIP3P    O 1015   1.873   2.621   1.508 -0.4737 -0.1733  0.1448
  339TIP3P    H 1016   1.954   2.593   1.551 -0.3310 -1.4541 -0.9452
  339TIP3P    H 1017   1.804   2.602   1.572  0.1722  2.1952  1.6464
  340TIP3P    O 1018   1.114   1.954   1.974  0.2295 -0.3502 -0.3171
  340TIP3P    H 1019   1.168   2.022   2.015 -0.4792  0.5551 -0.8855
  340TIP3P    H 1020   1.060   1.921   2.046 -0.9229  1.1506 -0.4765
  341TIP3P    O 1021   2.009   0.384   0.685 -0.1836  0.2410 -0.0631
  341TIP3P    H 1022   2.027   0.463   0.735  0.1503  1.8463 -2.6363
  341TIP3P    H 1023   2.094   0.341   0.675  0.2979  1.5719 -1.9178
  342TIP3P    O 1024   2.039   0.634   0.781 -0.0086  0.0075  0.1057
  342TIP3P    H 1025   2.131   0.657   0.798  0.3105  0.7635 -2.4221
  342TIP3P    H 1026   1.991   0.673   0.854  1.2519  3.1000 -0.6116
  343TIP3P    O 1027   1.534   0.269   3.072  0.1590  0.3312  0.6934
  343TIP3P    H 1028   1.607   0.255   3.132  0.9660 -1.3759 -0.6399
  343TIP3P    H 1029   1.459   0.290   3.129  0.9561 -1.0191  2.2802
  344TIP3P    O 1030   1.089   0.462   2.520 -0.5932  0.2225  0.0307
  344TIP3P    H 1031   1.013   0.485   2.573  0.0971  0.1162  1.1075
  344TIP3P    H 1032   1.075   0.505   2.436 -1.9869 -0.0626  0.1118
  345TIP3P    O 1033   0.353   0.802   0.957  0.4138 -0.4881  0.3140
  345TIP3P    H 1034   0.330   0.844   0.874  1.9720  0.1204  0.1730
  345TIP3P    H 1035   0.283   0.738   0.972 -1.1464  1.0384 -0.2694
  346TIP3P    O 1036   1.866   0.367   2.121 -0.4392  0.5874  0.2360
  346TIP3P    H 1037   1.842   0.319   2.200 -1.5478 -0.0309 -0.4655
  346TIP3P    H 1038   1.913   0.303   2.068 -1.9306  0.2415 -0.7061
  347TIP3P    O 1039   1.015   2.126   0.129  0.0013 -0.1186 -0.8078
  347TIP3P    H 1040   1.081   2.078   0.079  1.0939 -1.9848  2.2742
  347TIP3P    H 1041   1.063   2.198   0.169 -0.5975  0.6110 -1.3888
  348TIP3P    O 1042   0.282   1.810   1.050 -0.1305  0.1044 -0.1798
  348TIP3P    H 1043   0.284   1.733   1.107 -0.3190 -0.2439 -0.6415
  348TIP3P    H 1044   0.329   1.783   0.971  0.0911  0.5687 -0.2054
  349TIP3P    O 1045   1.607   2.525   0.911 -0.0148  0.5946 -0.2491
  349TIP3P    H 1046   1.678   2.494   0.855 -0.9028 -1.5017 -0.2501
  349TIP3P    H 1047   1.649   2.589   0.969  1.9564 -0.8773  0.0069
  350TIP3P    O 1048   1.363   1.630   1.376 -0.3329 -0.0952  0.0103
  350TIP3P    H 1049   1.274   1.593   1.378 -0.0117 -0.8413  0.6930
  350TIP3P    H 1050   1.349   1.723   1.357 -1.4015  0.2061  2.1234
  351TIP3P    O 1051   0.027   1.943   1.114 -0.1276 -0.4001  0.1119
  351TIP3P    H 1052   0.118   1.934   1.083 -0.3652 -1.2794 -0.3182
  351TIP3P    H 1053   0.030   1.913   1.205  0.5140  1.9253  0.9109
  352TIP3P    O 1054   3.043   2.454   1.507 -0.0807  0.6363 -0.1916
  352TIP3P    H 1055   3.039   2.385   1.441  0.7421  0.4124 -0.0079
  352TIP3P    H 1056   3.083   2.528   1.461  1.6583  0.0779  0.3983
  353TIP3P    O 1057   0.666   2.958   3.105  0.2079  0.3075  0.1833
  353TIP3P    H 1058   0.739   3.016   3.126  0.1187  0.4395  0.1339
  353TIP3P    H 1059   0.653   2.970   3.011  0.2466  0.1404  0.1559
  354TIP3P    O 1060   1.628   1.789   0.813  0.2251 -0.2152 -0.1549
  354TIP3P    H 1061   1.648   1.753   0.900  1.8128 -0.6586 -0.6910
  354TIP3P    H 1062   1.599   1.878   0.830 -0.5614 -0.6672  0.9272
  355TIP3P    O 1063   1.571   2.265   1.800  0.0832 -0.3194 -0.3343
  355TIP3P    H 1064   1.637   2.320   1.758 -0.3353  1.6816  1.4979
  355TIP3P    H 1065   1.618   2.187   1.829  1.2201  0.1917 -0.7988
  356TIP3P    O 1066   2.330   1.449   0.090  0.7213  0.0934 -0.9874
  356TIP3P    H 1067   2.421   1.429   0.113 -0.2488 -2.3888  0.9700
  356TIP3P    H 1068   2.298   1.498   0.166 -0.4517 -1.8574 -0.1791
  357TIP3P    O 1069   0.003   1.603   2.328 -0.7696  0.2876 -0.1996
  357TIP3P    H 1070  -0.029   1.544   2.397 -0.2376 -1.6428 -1.5391
  357TIP3P    H 1071   0.091   1.627   2.358 -0.1472 -1.3473 -0.6541
  358TIP3P    O 1072   2.670   1.699   2.455  1.0818  0.0554 -0.0766
  358TIP3P    H 1073   2.681   1.608   2.480  0.3692  0.0082  0.0855
  358TIP3P    H 1074   2.726   1.748   2.515 -0.7318 -0.0436  1.7640
  359TIP3P    O 1075   0.076   0.492   2.363  0.1454  0.2181 -0.0717
  359TIP3P    H 1076  -0.005   0.465   2.318 -0.6352  1.5665  0.5098
  359TIP3P    H 1077   0.124   0.410   2.376 -1.1140 -0.5998 -0.4531
  360TIP3P    O 1078   0.392   1.627   2.921 -0.1207 -0.7407 -0.0166
  360TIP3P    H 1079   0.477   1.662   2.893 -0.4329  0.9467  1.0482
  360TIP3P    H 1080   0.353   1.591   2.842  0.7851  0.2017 -0.9042
  361TIP3P    O 1081   2.493   2.066   1.285  0.0968  0.3140 -0.1420
  361TIP3P    H 1082   2.499   2.157   1.257 -0.0744  0.3685  0.0028
  361TIP3P    H 1083   2.552   2.019   1.226 -0.9045  0.3036 -1.1529
  362TIP3P    O 1084   2.678   1.161   1.501 -0.2168 -0.7072 -0.1807
  362TIP3P    H 1085   2.627   1.236   1.533 -0.6796 -2.2500  2.8160
  362TIP3P    H 1086   2.642   1.144   1.414 -0.7613  1.9273 -0.5318
  363TIP3P    O 1087   2.776   2.527   2.312 -0.1530  0.0372 -0.2414
  363TIP3P    H 1088   2.756   2.621   2.314  2.3011  0.6213 -1.0113
  363TIP3P    H 1089   2.858   2.519   2.361 -1.1834 -1.9754  1.2443
  364TIP3P    O 1090   1.510   0.779   1.078 -0.1502 -0.1145  1.1720
  364TIP3P    H 1091   1.439   0.786   1.141 -0.8621 -0.7688  0.4609
  364TIP3P    H 1092   1.571   0.716   1.117 -0.0868  0.2537  1.6652
  365TIP3P    O 1093   1.032   2.479   3.028 -0.0865 -0.4457  0.4039
  365TIP3P    H 1094   0.977   2.424   3.083 -0.0659  0.3825  1.2691
  365TIP3P    H 1095   1.091   2.523   3.090 -0.4348  0.9206 -0.2101
  366TIP3P    O 1096   0.763   2.320   2.432  0.3675 -0.2324 -0.4166
  366TIP3P    H 1097   0.765   2.302   2.527  0.3347 -0.3261 -0.4330
  366TIP3P    H 1098   0.702   2.392   2.423 -0.1424 -0.6608 -0.4361
  367TIP3P    O 1099   3.096   0.611   0.802 -0.1873 -0.0990  0.3383
  367TIP3P    H 1100   3.142   0.692   0.823 -0.7019  0.0660  0.8772
  367TIP3P    H 1101   3.064   0.580   0.887 -1.5668  0.1135 -0.0810
  368TIP3P    O 1102   3.010   2.979   0.163  0.2240 -0.0355  0.3208
  368TIP3P    H 1103   2.994   3.068   0.132 -0.9097 -0.5387 -0.5953
  368TIP3P    H 1104   2.935   2.958   0.219 -0.4495 -1.0432 -0.9247
  369TIP3P    O 1105   1.756   2.195   0.413 -0.3474  0.8773 -0.1663
  369TIP3P    H 1106   1.765   2.288   0.435 -0.3455  0.9498 -0.4656
  369TIP3P    H 1107   1.813   2.183   0.336 -0.7512  0.7500 -0.4480
  370TIP3P    O 1108   1.650   0.384   1.565 -0.0811  0.0136 -0.2370
  370TIP3P    H 1109   1.723   0.322   1.564  1.0092  1.2755 -0.0471
  370TIP3P    H 1110   1.594   0.355   1.494  1.9811  0.5997 -2.1783
  371TIP3P    O 1111   1.054   2.897   3.084 -0.0241 -0.4355  0.3817
  371TIP3P    H 1112   1.061   2.926   3.175  0.4562 -0.5439  0.3792
  371TIP3P    H 1113   1.079   2.805   3.087 -1.0741 -0.7367  0.3137
  372TIP3P    O 1114   2.726   2.640   0.005  0.1712  0.1459 -0.2706
  372TIP3P    H 1115   2.651   2.584  -0.013 -0.6591  0.8715  0.8982
  372TIP3P    H 1116   2.736   2.638   0.100  1.2174  0.5904 -0.3612
  373TIP3P    O 1117   1.014   0.234   1.165  0.6506  0.6258 -0.1342
  373TIP3P    H 1118   1.063   0.223   1.083  1.2760  1.0930  0.1729
  373TIP3P    H 1119   1.053   0.312   1.206 -0.6867  1.2953 -0.1224
  374TIP3P    O 1120   1.909   1.746   1.386  0.6265  0.1908 -0.0468
  374TIP3P    H 1121   1.948   1.670   1.429  1.5683  0.1692 -0.9185
  374TIP3P    H 1122   1.843   1.778   1.448  0.0763 -1.4607  0.2301
  375TIP3P    O 1123   2.509   2.336   0.756  0.2171 -0.5042 -0.1522
  375TIP3P    H 1124   2.581   2.274   0.743 -0.1040 -1.1150  0.9086
  375TIP3P    H 1125   2.525   2.372   0.843 -0.1202  0.2213 -0.3882
  376TIP3P    O 1126   2.265   1.569   0.332 -0.1195 -0.4404  0.3426
  376TIP3P    H 1127   2.171   1.585   0.328  0.1756  1.8111  1.5680
  376TIP3P    H 1128   2.281   1.542   0.422  0.4763 -0.3606  0.2625
  377TIP3P    O 1129   2.132   1.109   2.928  0.1011  0.1065  0.2526
  377TIP3P    H 1130   2.118   1.169   3.001  1.3332 -1.6905  2.0309
  377TIP3P    H 1131   2.068   1.039   2.941  1.7138 -1.3011  0.8478
  378TIP3P    O 1132   2.078   2.958   0.882  0.2662 -0.7472  0.2881
  378TIP3P    H 1133   2.017   2.888   0.859 -0.2247  0.4457 -2.2503
  378TIP3P    H 1134   2.160   2.932   0.841  1.3710 -2.0788  3.2375
  379TIP3P    O 1135   1.860   1.235   1.227  0.1531  0.5445  0.3085
  379TIP3P    H 1136   1.920   1.301   1.263  1.2915  0.0531 -0.6636
  379TIP3P    H 1137   1.790   1.229   1.291  0.3033  2.3328  0.6691
  380TIP3P    O 1138   2.295   1.141   0.686 -0.4361 -0.3781 -0.2644
  380TIP3P    H 1139   2.219   1.082   0.687 -0.9255  0.2577  0.1050
  380TIP3P    H 1140   2.370   1.082   0.679 -0.9771 -1.0002 -0.9848
  381TIP3P    O 1141   0.819   2.562   2.658 -0.0920 -0.5882  0.5222
  381TIP3P    H 1142   0.876   2.586   2.731  0.7713 -3.9375  1.0517
  381TIP3P    H 1143   0.865   2.594   2.581  0.7058 -0.0145  1.2177
  382TIP3P    O 1144   1.807   1.771   3.059 -0.0444  0.1564 -0.6013
  382TIP3P    H 1145   1.740   1.711   3.027  0.2071  0.2944 -1.3962
  382TIP3P    H 1146   1.886   1.719   3.064 -0.3957 -0.2284  1.1690
  383TIP3P    O 1147   0.187   1.946   0.158 -0.1907 -0.5648 -0.2053
  383TIP3P    H 1148   0.105   1.912   0.194  0.6771 -0.5884  1.7829
  383TIP3P    H 1149   0.238   1.868   0.137 -0.2703 -0.5412 -0.4833
  384TIP3P    O 1150   2.581   2.184   2.321 -0.2468  0.2889  0.3534
  384TIP3P    H 1151   2.546   2.269   2.294 -0.7681 -0.3689 -1.0522
  384TIP3P    H 1152   2.576   2.187   2.417  0.9007  2.3219  0.3908
  385TIP3P    O 1153   0.729   0.492   1.513  0.1917 -0.5364  0.7163
  385TIP3P    H 1154   0.672   0.542   1.571 -0.5394 -0.2504 -0.2203
  385TIP3P    H 1155   0.708   0.526   1.425  0.2413 -1.9421  0.1546
  386TIP3P    O 1156   0.068   2.629   0.263 -0.3121 -0.2222  0.6467
  386TIP3P    H 1157   0.132   2.558   0.269 -0.8326 -0.6732  0.9245
  386TIP3P    H 1158   0.019   2.610   0.183 -1.5388 -1.0942  1.6034
  387TIP3P    O 1159   0.368   2.492   2.065 -0.3150 -0.5819 -0.0678
  387TIP3P    H 1160   0.273   2.502   2.067 -0.5924 -3.0439  1.6191
  387TIP3P    H 1161   0.385   2.411   2.113  2.7570  0.6330  1.0436
  388TIP3P    O 1162   2.072   1.472   1.240  0.1530  0.5412 -0.9752
  388TIP3P    H 1163   2.135   1.522   1.291  1.2408 -2.3322  0.5681
  388TIP3P    H 1164   2.124   1.407   1.194 -1.5854 -1.2988 -0.4017
  389TIP3P    O 1165   2.249   0.426   3.002 -0.1176 -0.3470  0.0280
  389TIP3P    H 1166   2.238   0.483   3.078 -2.3172 -0.2961 -0.2904
  389TIP3P    H 1167   2.250   0.485   2.927 -2.7670 -0.7046 -0.3327
  390TIP3P    O 1168   0.128   0.807   3.034 -0.4304 -0.2937  0.1456
  390TIP3P    H 1169   0.182   0.885   3.022 -0.1793 -0.2354  1.5045
  390TIP3P    H 1170   0.187   0.733   3.017  0.3148 -0.2475  2.3375
  391TIP3P    O 1171   1.995   2.534   2.125 -0.1285  0.3134  0.3419
  391TIP3P    H 1172   2.071   2.499   2.171 -1.9551 -1.6694  1.9107
  391TIP3P    H 1173   1.991   2.484   2.043  0.2632  0.4796  0.2165
  392TIP3P    O 1174   2.789   0.497   2.020 -0.7206  0.8468 -0.0434
  392TIP3P    H 1175   2.704   0.528   2.049 -0.2941 -0.5918  2.9191
  392TIP3P    H 1176   2.776   0.404   2.001  0.3878  0.3985  1.3204
  393TIP3P    O 1177   2.169   2.640   0.798  0.1300  0.1514  0.1361
  393TIP3P    H 1178   2.239   2.701   0.777  1.3154 -1.1211  0.3000
  393TIP3P    H 1179   2.161   2.585   0.720 -0.3240 -0.0361  0.3128
  394TIP3P    O 1180   1.009   0.200   2.320 -0.2859  0.1766 -0.0139
  394TIP3P    H 1181   0.939   0.201   2.386 -0.9049 -2.4234 -0.5915
  394TIP3P    H 1182   1.082   0.156   2.363  0.9347  2.5673  0.4643
  395TIP3P    O 1183   1.400   0.661   0.842 -0.2116 -0.4958 -0.4839
  395TIP3P    H 1184   1.456   0.716   0.897  0.5281 -0.9288 -0.7922
  395TIP3P    H 1185   1.452   0.582   0.826 -1.4162 -1.4567  0.2768
  396TIP3P    O 1186   2.659   3.074   0.475 -0.1307  0.3553  0.0077
  396TIP3P    H 1187   2.704   3.132   0.414 -0.9006  0.2315 -0.6800
  396TIP3P    H 1188   2.725   3.053   0.541  1.2089 -0.8265 -1.6625
  397TIP3P    O 1189   0.471   3.044   1.405 -0.4885  0.1922  0.1753
  397TIP3P    H 1190   0.390   3.089   1.430 -0.9781 -0.0982 -0.8587
  397TIP3P    H 1191   0.540   3.106   1.429 -0.9637  0.1178  1.7713
  398TIP3P    O 1192   2.934   1.652   0.051  0.1056  0.6501  0.0788
  398TIP3P    H 1193   2.847   1.654   0.010  0.1098 -1.5966 -0.1096
  398TIP3P    H 1194   2.918   1.622   0.140  0.4799  2.1705  0.6618
  399TIP3P    O 1195   0.282   0.477   1.981 -0.1695  0.1442 -0.4720
  399TIP3P    H 1196   0.223   0.551   1.991 -2.9517 -1.5520 -3.4568
  399TIP3P    H 1197   0.321   0.488   1.895  1.6721 -0.3376  0.2628
  400TIP3P    O 1198   0.314   1.744   0.034  0.0928  0.1560  0.2519
  400TIP3P    H 1199   0.236   1.709  -0.008  1.1027 -0.6368 -0.9788
  400TIP3P    H 1200   0.387   1.716  -0.022  1.2552  0.9464  1.3373
  401TIP3P    O 1201   0.016   1.980   2.065  0.2661  0.4515 -0.6261
  401TIP3P    H 1202   0.039   1.915   1.998  0.5912 -0.6892  0.5671
  401TIP3P    H 1203   0.089   2.042   2.064  1.5167 -0.9740  0.4138
  402TIP3P    O 1204   0.100   2.453   1.988  0.3583 -0.2943  0.1980
  402TIP3P    H 1205   0.050   2.384   2.032  0.7282 -2.1401 -2.1580
  402TIP3P    H 1206   0.034   2.501   1.938  0.6340 -1.4698 -1.3203
  403TIP3P    O 1207   2.536   1.738   0.266  0.0390  0.0118  0.8335
  403TIP3P    H 1208   2.483   1.718   0.188  0.4666  1.1041  0.2472
  403TIP3P    H 1209   2.514   1.669   0.328 -0.4126 -0.8051 -0.2142
  404TIP3P    O 1210   0.596   1.379   1.617  0.2083  0.1328  0.0504
  404TIP3P    H 1211   0.522   1.377   1.557  0.2314  0.0416  0.0243
  404TIP3P    H 1212   0.603   1.471   1.645 -0.2189  0.0511  0.4324
  405TIP3P    O 1213   0.533   0.290   0.765  0.2026 -0.0765 -0.3421
  405TIP3P    H 1214   0.532   0.196   0.780 -1.2293  0.0889  0.6649
  405TIP3P    H 1215   0.451   0.308   0.719  0.9899  0.5262 -1.5323
  406TIP3P    O 1216   1.755   1.617   2.834  0.4242 -0.1213 -0.2319
  406TIP3P    H 1217   1.785   1.627   2.743 -0.0838  1.2092 -0.2746
  406TIP3P    H 1218   1.832   1.586   2.881  1.2740  1.1041 -0.7601
  407TIP3P    O 1219   0.982   2.229   1.386  0.2292  0.1251 -0.4135
  407TIP3P    H 1220   0.917   2.266   1.327  0.0857  1.1792  0.4032
  407TIP3P    H 1221   0.969   2.275   1.469  1.1111 -0.6154  0.1476
  408TIP3P    O 1222   1.200   2.025   3.053 -0.0653  0.1389  0.1797
  408TIP3P    H 1223   1.277   2.002   3.105  0.4498 -0.9650 -1.0337
  408TIP3P    H 1224   1.183   1.947   3.000 -2.8667 -0.1785  1.4331
  409TIP3P    O 1225   2.854   2.325   2.653 -0.6444 -0.3363  0.1372
  409TIP3P    H 1226   2.914   2.253   2.673  0.2902  0.2706 -0.4412
  409TIP3P    H 1227   2.866   2.341   2.559 -0.6799  0.7169  0.3083
  410TIP3P    O 1228   2.828   1.193   0.779 -0.1380 -0.2789 -0.0146
  410TIP3P    H 1229   2.794   1.223   0.695 -0.3903  0.0255  0.1941
  410TIP3P    H 1230   2.879   1.115   0.758  1.9067  1.2381 -0.7709
  411TIP3P    O 1231   0.401   1.108   1.293 -0.0266 -0.4685  0.4387
  411TIP3P    H 1232   0.468   1.131   1.229 -1.1954  0.2137 -0.5678
  411TIP3P    H 1233   0.367   1.024   1.264 -0.8531  0.0429 -0.0873
  412TIP3P    O 1234   2.331   1.360   1.138  0.0319 -0.1534  0.0776
  412TIP3P    H 1235   2.415   1.400   1.164 -0.2821 -0.4252  1.5381
  412TIP3P    H 1236   2.351   1.267   1.129 -0.0076 -0.1472 -0.0885
  413TIP3P    O 1237   2.467   1.345   1.784 -0.5767 -0.8190 -0.1113
  413TIP3P    H 1238   2.398   1.319   1.845  0.8217 -0.5854  1.6129
  413TIP3P    H 1239   2.543   1.292   1.808  0.7662  1.0894  0.0444
  414TIP3P    O 1240   1.829   0.182   1.535  0.0057 -0.2461  0.3649
  414TIP3P    H 1241   1.854   0.188   1.443  0.8137 -1.7713  0.4616
  414TIP3P    H 1242   1.811   0.089   1.549 -0.6036  0.0428  1.6239
  415TIP3P    O 1243   2.870   1.781   1.741  0.0640 -0.3052 -0.1039
  415TIP3P    H 1244   2.799   1.842   1.761 -0.7442 -1.2226 -0.0781
  415TIP3P    H 1245   2.918   1.772   1.823 -0.1917 -0.1837  0.0606
  416TIP3P    O 1246   0.929   1.839   0.331  0.3882 -0.0835  0.1916
  416TIP3P    H 1247   0.934   1.933   0.348  0.3905  0.3324 -1.9566
  416TIP3P    H 1248   0.875   1.804   0.401 -0.0704  1.6040  0.6895
  417TIP3P    O 1249   1.461   2.807   2.160 -0.5530 -0.5176  0.0165
  417TIP3P    H 1250   1.455   2.902   2.174  1.0161 -0.2071 -1.2910
  417TIP3P    H 1251   1.547   2.783   2.195  0.0186 -1.0774 -1.7510
  418TIP3P    O 1252   2.765   1.742   0.515  0.2637  0.2634 -0.2870
  418TIP3P    H 1253   2.742   1.684   0.587  1.4729 -0.9722 -0.8776
  418TIP3P    H 1254   2.737   1.829   0.544  1.2222 -0.1265  1.8940
  419TIP3P    O 1255   0.043   0.247   0.346 -0.2804  0.0963 -0.1651
  419TIP3P    H 1256   0.123   0.195   0.335 -1.6153 -1.9334 -0.6607
  419TIP3P    H 1257   0.021   0.276   0.257 -0.0569  0.7020 -0.0221
  420TIP3P    O 1258   1.077   0.648   0.417  0.0121 -0.8060 -0.2277
  420TIP3P    H 1259   1.072   0.566   0.466  1.5756 -1.7252 -1.5275
  420TIP3P    H 1260   1.054   0.624   0.327  0.7657  0.1118 -0.6834
  421TIP3P    O 1261   0.218   2.021   0.762  0.4390 -0.1954  0.6878
  421TIP3P    H 1262   0.125   2.042   0.751  0.7690  0.0099 -2.1586
  421TIP3P    H 1263   0.259   2.104   0.783  0.0407 -0.1918  1.4540
  422TIP3P    O 1264   1.905   0.712   1.454 -0.2540  0.1396  0.2934
  422TIP3P    H 1265   1.840   0.677   1.514 -0.9171  0.5712 -0.1632
  422TIP3P    H 1266   1.987   0.710   1.503 -0.3487 -1.6638  0.4162
  423TIP3P    O 1267   1.981   2.680   0.982  0.7252  0.0520  0.3545
  423TIP3P    H 1268   2.051   2.651   0.923  1.0077  2.6562 -0.6703
  423TIP3P    H 1269   1.916   2.719   0.924 -1.2770 -1.6999  1.3698
  424TIP3P    O 1270   1.182   2.567   0.427 -0.1222 -0.5911 -0.0074
  424TIP3P    H 1271   1.200   2.642   0.485  0.8591 -0.4598 -0.4629
  424TIP3P    H 1272   1.099   2.587   0.386  0.2128  0.3256 -0.2425
  425TIP3P    O 1273   1.345   2.771   1.013  0.1223 -0.3564  0.2319
  425TIP3P    H 1274   1.342   2.821   1.094  0.3925 -2.4282  1.5760
  425TIP3P    H 1275   1.433   2.787   0.978  0.0666  0.4063  0.4384
  426TIP3P    O 1276   2.627   2.204   2.588 -0.7201 -0.0490  0.0995
  426TIP3P    H 1277   2.614   2.130   2.647 -1.7482  0.7392  0.8653
  426TIP3P    H 1278   2.720   2.225   2.597 -0.6256 -0.6469  0.5781
  427TIP3P    O 1279   2.768   2.104   2.004  0.0227  0.0535  0.7337
  427TIP3P    H 1280   2.732   2.035   1.948  0.5464 -1.5953  2.3885
  427TIP3P    H 1281   2.741   2.080   2.093  0.6154  1.7272  1.3947
  428TIP3P    O 1282   2.763   0.118   0.839 -0.0007  0.1980 -0.3499
  428TIP3P    H 1283   2.713   0.158   0.768  2.0806  1.9119 -0.8854
  428TIP3P    H 1284   2.816   0.050   0.796 -1.2206 -1.0480  0.0891
  429TIP3P    O 1285   1.576   2.779   2.555 -0.4791  0.5336 -0.0304
  429TIP3P    H 1286   1.562   2.820   2.640 -1.3389 -0.1044  0.1464
  429TIP3P    H 1287   1.560   2.848   2.491  1.5634  1.3989  0.3504
  430TIP3P    O 1288   1.826   1.228   0.362  0.0925 -0.4113 -0.1642
  430TIP3P    H 1289   1.777   1.304   0.330  0.8611 -0.0908 -0.5906
  430TIP3P    H 1290   1.913   1.237   0.323  0.0766 -1.7129 -0.5086
  431TIP3P    O 1291   0.307   2.287   0.940 -0.5746  0.0265  0.1680
  431TIP3P    H 1292   0.322   2.261   1.031  0.1339  1.2448  0.4018
  431TIP3P    H 1293   0.257   2.368   0.945  0.9308  1.0211 -0.4954
  432TIP3P    O 1294   1.141   1.345   0.381  0.1071 -0.1436 -0.4363
  432TIP3P    H 1295   1.231   1.375   0.377 -0.4824  1.7195 -0.3295
  432TIP3P    H 1296   1.098   1.391   0.308 -0.9501 -0.2945  0.0876
  433TIP3P    O 1297   2.953   2.259   1.863 -0.1753 -0.3823 -0.4979
  433TIP3P    H 1298   2.872   2.218   1.893  0.7240 -0.9791  1.1344
  433TIP3P    H 1299   2.968   2.331   1.924 -0.2157  0.6343 -1.6491
  434TIP3P    O 1300   2.495   1.048   1.254 -0.4559 -0.0439 -0.5667
  434TIP3P    H 1301   2.445   1.053   1.173 -1.8375 -1.1548  0.1931
  434TIP3P    H 1302   2.436   1.083   1.321 -0.6532 -2.3316  0.5139
  435TIP3P    O 1303   2.998   3.078   1.643 -0.0541  0.0931  0.2440
  435TIP3P    H 1304   3.082   3.122   1.635 -0.0407  0.2740  1.2887
  435TIP3P    H 1305   3.013   3.011   1.711 -1.0760  0.9502  1.3353
  436TIP3P    O 1306   2.288   1.224   1.945 -0.1137 -0.4316 -0.0997
  436TIP3P    H 1307   2.329   1.251   2.027 -0.0975  0.7177 -0.4838
  436TIP3P    H 1308   2.250   1.138   1.964  2.7619 -1.6925  0.1638
  437TIP3P    O 1309   1.092   1.935   2.437 -0.0036  0.3217 -0.5096
  437TIP3P    H 1310   1.059   1.855   2.477  0.6135  0.6258  0.6262
  437TIP3P    H 1311   1.087   2.001   2.507  3.7384  0.1957 -0.0203
  438TIP3P    O 1312   0.225   2.341   2.722 -0.2464  0.0788 -0.3839
  438TIP3P    H 1313   0.169   2.318   2.796  1.3317 -2.9390 -0.0770
  438TIP3P    H 1314   0.311   2.356   2.761  0.2492  0.0127 -1.4388
  439TIP3P    O 1315   3.014   2.572   2.458  0.2872 -0.0564 -0.4278
  439TIP3P    H 1316   3.090   2.515   2.452 -1.1802 -2.0277 -0.8362
  439TIP3P    H 1317   2.980   2.559   2.546 -0.7087 -0.7181 -0.8938
  440TIP3P    O 1318   0.763   2.877   2.271  0.0519 -0.1442  0.3184
  440TIP3P    H 1319   0.674   2.909   2.264 -0.0706 -0.6591 -0.5306
  440TIP3P    H 1320   0.813   2.929   2.208 -0.2944 -2.0962 -1.6102
  441TIP3P    O 1321   0.019   0.437   0.512 -0.3307  0.3119 -0.7504
  441TIP3P    H 1322   0.026   0.359   0.456 -0.6271  0.2060 -0.6390
  441TIP3P    H 1323   0.103   0.481   0.501  0.1212 -0.4136 -0.2422
  442TIP3P    O 1324   1.600   0.926   0.701 -0.1839  0.0897 -0.3360
  442TIP3P    H 1325   1.680   0.977   0.684 -0.9686  1.5758  0.3157
  442TIP3P    H 1326   1.632   0.839   0.726  1.2445  0.8050  0.3833
  443TIP3P    O 1327   1.155   2.997   1.420  0.4634 -0.1799  0.1715
  443TIP3P    H 1328   1.110   2.927   1.468  0.8922 -1.0216 -0.6286
  443TIP3P    H 1329   1.087   3.036   1.366  0.4663 -0.7747 -0.2706
  444TIP3P    O 1330   0.386   2.150   1.614 -0.0891 -0.1243 -0.3146
  444TIP3P    H 1331   0.410   2.204   1.539 -0.7590 -1.2466 -1.3506
  444TIP3P    H 1332   0.301   2.182   1.641  1.9583  3.1137  2.6636
  445TIP3P    O 1333   1.070   0.458   0.670  0.0625  0.5311 -0.6989
  445TIP3P    H 1334   1.002   0.407   0.627  1.0987  0.7483 -2.6804
  445TIP3P    H 1335   1.134   0.393   0.700 -0.3629  0.4213 -0.0295
  446TIP3P    O 1336   1.757   2.285   0.807  0.1177 -0.3376 -0.6486
  446TIP3P    H 1337   1.747   2.191   0.819 -0.1500 -0.1336  0.8037
  446TIP3P    H 1338   1.784   2.318   0.893 -5.2940  1.6606  0.5117
  447TIP3P    O 1339   1.660   0.272   0.209  0.3564 -0.2718 -0.6140
  447TIP3P    H 1340   1.629   0.363   0.210 -1.6848 -0.9352  1.1078
  447TIP3P    H 1341   1.680   0.253   0.301 -2.4499 -2.5706 -0.4273
  448TIP3P    O 1342   2.221   3.050   2.458 -0.5620 -0.2342 -0.0277
  448TIP3P    H 1343   2.218   3.052   2.554  2.7208 -0.2626  0.1321
  448TIP3P    H 1344   2.230   2.958   2.435  2.4934  0.0110 -0.1080
  449TIP3P    O 1345   1.044   2.951   0.269 -0.1719  0.0555 -0.3887
  449TIP3P    H 1346   1.109   2.924   0.334  0.5459  1.0826 -0.6590
  449TIP3P    H 1347   0.969   2.979   0.321 -1.0151 -2.5582 -0.1020
  450TIP3P    O 1348   0.972   0.584   0.176 -0.2006  0.0243  0.5913
  450TIP3P    H 1349   0.996   0.556   0.087 -0.6269  0.5044  0.3241
  450TIP3P    H 1350   0.885   0.546   0.190  1.0849 -2.5455  1.9299
  451TIP3P    O 1351   2.544   1.620   1.757  0.1792  0.5933  0.2233
  451TIP3P    H 1352   2.497   1.538   1.745 -0.3193  0.7842  0.8283
  451TIP3P    H 1353   2.635   1.594   1.771  0.2202  0.2119 -0.7270
  452TIP3P    O 1354   1.197   0.700   0.657  0.0575 -0.1872  0.0271
  452TIP3P    H 1355   1.263   0.721   0.723  1.3811 -2.8766 -0.3886
  452TIP3P    H 1356   1.154   0.621   0.689  0.1252 -1.0333 -1.8729
  453TIP3P    O 1357   1.871   0.483   0.463  0.5183 -0.2975  0.3584
  453TIP3P    H 1358   1.899   0.574   0.454 -0.9674  0.1783  0.3934
  453TIP3P    H 1359   1.927   0.447   0.532 -1.2106  1.5943  2.8148
  454TIP3P    O 1360   1.410   1.721   0.212  0.4819 -0.0152  0.6446
  454TIP3P    H 1361   1.315   1.710   0.210  0.5560 -0.4291 -0.8917
  454TIP3P    H 1362   1.445   1.643   0.170  1.4390  0.8903 -0.2900
  455TIP3P    O 1363   1.629   1.652   1.103  0.3041 -0.3081 -0.2883
  455TIP3P    H 1364   1.657   1.612   1.185 -1.3625  1.0657  0.9979
  455TIP3P    H 1365   1.613   1.744   1.125  0.6539  0.2744 -2.3521
  456TIP3P    O 1366   2.725   2.660   0.307  0.5686 -0.3083  0.5965
  456TIP3P    H 1367   2.639   2.633   0.275  1.5389  0.1106 -2.4761
  456TIP3P    H 1368   2.724   2.755   0.304  0.1679 -0.1602  3.3797
  457TIP3P    O 1369   0.765   1.496   0.019  0.0255  0.2932  0.4998
  457TIP3P    H 1370   0.779   1.584  -0.016  0.3388  0.4819  1.0766
  457TIP3P    H 1371   0.745   1.442  -0.057  0.3935  0.7537  0.0729
  458TIP3P    O 1372   0.339   2.121   0.316  0.5958  0.1163  0.1562
  458TIP3P    H 1373   0.286   2.199   0.297 -0.5710 -1.0181 -1.4537
  458TIP3P    H 1374   0.312   2.058   0.249  2.6258 -1.1502  0.5078
  459TIP3P    O 1375   0.789   2.511   1.998 -0.5032  0.1780 -0.1443
  459TIP3P    H 1376   0.820   2.567   2.069 -3.0802  1.5829 -0.0540
  459TIP3P    H 1377   0.727   2.451   2.040  1.3710 -2.0136 -0.4503
  460TIP3P    O 1378   0.050   2.503   0.008 -0.5838 -0.2530  0.1109
  460TIP3P    H 1379   0.057   2.407   0.013  1.2488 -0.0957  0.6970
  460TIP3P    H 1380  -0.003   2.519  -0.070 -3.2816 -1.8291  1.5197
  461TIP3P    O 1381   0.538   2.889   1.948  0.1870  0.2548  0.0945
  461TIP3P    H 1382   0.538   2.812   1.892  0.1254  0.0731  0.3471
  461TIP3P    H 1383   0.473   2.870   2.016  0.0986  0.5677  0.1007
  462TIP3P    O 1384   0.400   2.049   2.401 -0.1897 -0.2305 -0.0416
  462TIP3P    H 1385   0.491   2.054   2.371 -0.2630  0.5860 -0.1515
  462TIP3P    H 1386   0.397   1.971   2.457  0.4255 -0.6266 -0.5516
  463TIP3P    O 1387   1.126   1.573   2.184  0.8487  0.1070 -0.9762
  463TIP3P    H 1388   1.216   1.580   2.153  1.2397  2.2146  0.5089
  463TIP3P    H 1389   1.080   1.643   2.138  0.6278  0.8731  0.3793
  464TIP3P    O 1390   0.561   0.504   0.929 -0.1982 -0.5896  0.4789
  464TIP3P    H 1391   0.579   0.433   0.867  4.7101  0.6652  0.2524
  464TIP3P    H 1392   0.565   0.584   0.876  0.6602  0.2490  1.7570
  465TIP3P    O 1393   0.276   0.843   2.061 -0.1414  0.4820 -0.4103
  465TIP3P    H 1394   0.282   0.773   2.126 -1.8873 -0.0760 -0.8300
  465TIP3P    H 1395   0.202   0.819   2.006  1.2813  0.9819 -2.5947
  466TIP3P    O 1396   3.066   2.259   1.299 -0.2196  0.4886  0.3594
  466TIP3P    H 1397   2.986   2.242   1.249  0.8142 -0.7411 -0.8961
  466TIP3P    H 1398   3.081   2.179   1.349  1.3546 -0.0820 -0.9952
  467TIP3P    O 1399   2.872   2.362   0.617 -0.2982 -0.2356 -0.1642
  467TIP3P    H 1400   2.953   2.395   0.657 -1.3048  1.1909  0.7282
  467TIP3P    H 1401   2.885   2.376   0.523  0.2542  0.5146  0.0225
  468TIP3P    O 1402   3.099   0.502   2.709  0.0351 -0.2672  0.0854
  468TIP3P    H 1403   3.071   0.528   2.621 -1.3752 -0.8743  0.3396
  468TIP3P    H 1404   3.170   0.563   2.731 -0.2689  0.5156 -1.0788
  469TIP3P    O 1405   2.285   1.949   0.651  0.0109  0.0666  0.4658
  469TIP3P    H 1406   2.227   1.949   0.727 -1.3006  1.8997 -0.5168
  469TIP3P    H 1407   2.363   1.996   0.681 -0.3464  0.4514  0.7973
  470TIP3P    O 1408   2.919   0.785   2.093  0.0616 -0.2088 -0.1190
  470TIP3P    H 1409   2.828   0.782   2.064  0.5781  0.7151 -1.9710
  470TIP3P    H 1410   2.951   0.695   2.084  0.1235  0.0024 -2.2571
  471TIP3P    O 1411   0.819   0.634   1.812 -0.2463 -0.5024  0.1285
  471TIP3P    H 1412   0.831   0.662   1.721 -1.6311 -0.5242 -0.0758
  471TIP3P    H 1413   0.826   0.714   1.864 -0.3630 -0.3601 -0.0768
  472TIP3P    O 1414   2.539   2.969   0.790  0.3936 -0.2942  0.2889
  472TIP3P    H 1415   2.529   3.059   0.758 -1.2652 -1.0047 -1.2759
  472TIP3P    H 1416   2.586   2.978   0.872  0.3244  2.0104  0.1066
  473TIP3P    O 1417   1.601   1.236   1.415 -0.2159 -0.6001  0.0568
  473TIP3P    H 1418   1.611   1.331   1.414  0.7571 -0.6970 -1.9981
  473TIP3P    H 1419   1.559   1.217   1.499  0.1340  1.5780  0.7547
  474TIP3P    O 1420   0.761   3.023   1.476  0.1829  0.6748  0.4078
  474TIP3P    H 1421   0.770   3.092   1.541  1.1914  0.7618  0.1842
  474TIP3P    H 1422   0.820   3.049   1.406 -0.1218  0.0475 -0.0861
  475TIP3P    O 1423   1.576   2.579   1.396  0.0771  0.3545 -0.4177
  475TIP3P    H 1424   1.545   2.491   1.414  0.7782  0.2080  0.1139
  475TIP3P    H 1425   1.546   2.631   1.470  0.9716  0.2401  0.0305
  476TIP3P    O 1426   0.953   0.389   1.584 -0.2936 -0.3797  0.4436
  476TIP3P    H 1427   0.876   0.440   1.557 -0.4344 -0.3341  0.9084
  476TIP3P    H 1428   0.923   0.298   1.581  0.5502 -0.5967 -2.2750
  477TIP3P    O 1429   1.659   0.480   0.931  0.4029 -0.1401  0.2803
  477TIP3P    H 1430   1.712   0.409   0.894  0.7399  0.1645  0.1689
  477TIP3P    H 1431   1.584   0.437   0.970  0.6506 -0.5660  0.2843
  478TIP3P    O 1432   1.330   0.931   0.614  0.1437  0.4900  0.3019
  478TIP3P    H 1433   1.424   0.946   0.607 -0.0762  1.8342  0.0125
  478TIP3P    H 1434   1.310   0.947   0.706 -0.0776  2.0419  0.0103
  479TIP3P    O 1435   1.857   1.014   1.577 -0.1400 -0.9469  0.0243
  479TIP3P    H 1436   1.847   1.019   1.672 -2.1813 -0.0529 -0.2223
  479TIP3P    H 1437   1.768   1.013   1.543  0.5706 -1.6375 -1.8796
  480TIP3P    O 1438   3.077   2.586   1.759 -0.5054  0.6084  0.1673
  480TIP3P    H 1439   3.089   2.542   1.675 -1.6334  0.2408  0.1933
  480TIP3P    H 1440   3.164   2.619   1.782  0.0620 -0.4054 -0.5257
  481TIP3P    O 1441   0.641   2.954   0.670  0.1334  0.1635  0.0153
  481TIP3P    H 1442   0.596   2.976   0.752 -0.0278  1.9141 -0.5130
  481TIP3P    H 1443   0.730   2.931   0.696 -0.0829  0.1716  0.7497
  482TIP3P    O 1444   2.857   2.930   2.690  0.5905  0.0288  0.0900
  482TIP3P    H 1445   2.928   2.921   2.752 -0.4291 -2.5803  0.9570
  482TIP3P    H 1446   2.793   2.986   2.734  1.3860  1.0370 -0.0337
  483TIP3P    O 1447   1.017   1.872   0.768 -0.3089 -0.0647 -0.1574
  483TIP3P    H 1448   1.096   1.926   0.756  0.7409 -1.5814 -0.1441
  483TIP3P    H 1449   0.946   1.936   0.778  0.7767  1.3120 -1.0658
  484TIP3P    O 1450   2.675   1.977   1.092  0.1364 -0.3623  0.1885
  484TIP3P    H 1451   2.715   1.943   1.172  1.5701  0.9228  0.0467
  484TIP3P    H 1452   2.722   1.933   1.021 -0.4367 -0.7312  0.0308
  485TIP3P    O 1453   2.001   1.538   1.534  0.6588  0.0516 -0.4232
  485TIP3P    H 1454   1.997   1.449   1.498  0.5586  0.2904 -1.0074
  485TIP3P    H 1455   1.922   1.545   1.587  0.7420 -0.2583 -0.2522
  486TIP3P    O 1456   1.481   1.371   1.891 -0.1071  0.4421  0.2918
  486TIP3P    H 1457   1.388   1.393   1.881 -0.5760 -1.7647 -0.3959
  486TIP3P    H 1458   1.496   1.368   1.985 -0.8087  0.4681  0.4036
  487TIP3P    O 1459   1.232   0.955   0.869  0.4338 -0.0810  0.3716
  487TIP3P    H 1460   1.203   0.892   0.935  2.3902 -2.5959 -1.0679
  487TIP3P    H 1461   1.261   1.031   0.920 -0.3594 -1.0084  2.2618
  488TIP3P    O 1462   1.934   2.110   1.599 -0.2645  0.2064  0.8174
  488TIP3P    H 1463   1.936   2.028   1.649  0.2709 -1.3409 -1.6466
  488TIP3P    H 1464   2.014   2.156   1.625  1.5330 -1.9236 -0.7241
  489TIP3P    O 1465   0.658   2.434   0.405  0.2275  0.0476  0.2660
  489TIP3P    H 1466   0.597   2.400   0.470 -1.1688  1.1157 -0.4574
  489TIP3P    H 1467   0.675   2.360   0.346 -3.1273  0.6243 -1.5654
  490TIP3P    O 1468   1.872   1.773   2.172  0.0843 -0.0581 -0.2136
  490TIP3P    H 1469   1.929   1.848   2.193 -2.0061  1.4296  0.2525
  490TIP3P    H 1470   1.836   1.747   2.257 -1.7465  0.5287 -0.7816
  491TIP3P    O 1471   0.709   0.049   2.297 -0.3163  0.0175  0.0394
  491TIP3P    H 1472   0.709   0.044   2.202  0.1609 -1.1268  0.0918
  491TIP3P    H 1473   0.622   0.017   2.323 -1.1031  2.0031 -0.0773
  492TIP3P    O 1474   1.260   0.402   0.314 -0.0184  0.1908  0.0422
  492TIP3P    H 1475   1.248   0.450   0.232 -0.0194  0.3132  0.1153
  492TIP3P    H 1476   1.266   0.310   0.287 -1.8165  0.0513  0.0678
  493TIP3P    O 1477   1.302   1.268   2.088 -0.1442 -0.5478  0.8751
  493TIP3P    H 1478   1.272   1.245   2.001  0.2570  0.2832  0.5121
  493TIP3P    H 1479   1.333   1.186   2.126  1.6397 -0.5610 -0.5376
  494TIP3P    O 1480   1.292   0.790   1.264  0.0124 -0.2548  0.4548
  494TIP3P    H 1481   1.247   0.872   1.287 -0.7888 -1.2107  2.4805
  494TIP3P    H 1482   1.260   0.727   1.329  1.5340 -1.8808 -0.3424
  495TIP3P    O 1483   0.039   1.118   2.750 -0.4075  0.1983  0.4675
  495TIP3P    H 1484   0.089   1.184   2.701 -1.1741 -0.6121 -1.4573
  495TIP3P    H 1485   0.097   1.042   2.755 -0.3215  0.2884  0.8305
  496TIP3P    O 1486   2.116   0.645   1.204  0.4843  0.2669  0.0253
  496TIP3P    H 1487   2.150   0.714   1.146 -0.0232  0.7903  0.3374
  496TIP3P    H 1488   2.066   0.693   1.270 -1.5443 -0.5030 -0.8980
  497TIP3P    O 1489   2.647   0.673   1.251 -0.4263 -0.1730  0.5481
  497TIP3P    H 1490   2.705   0.749   1.256 -1.4245  0.6220  0.2197
  497TIP3P    H 1491   2.700   0.601   1.284  0.7756  0.5217  0.1946
  498TIP3P    O 1492   0.736   1.049   1.455  0.0407  0.1974 -0.2611
  498TIP3P    H 1493   0.656   1.002   1.479  0.6828 -1.0665 -0.5078
  498TIP3P    H 1494   0.751   1.110   1.526 -0.6467 -0.2147  0.2396
  499TIP3P    O 1495   2.524   0.842   1.807 -0.1997 -0.3771  0.5913
  499TIP3P    H 1496   2.439   0.886   1.814  0.7842  1.3433  1.9459
  499TIP3P    H 1497   2.547   0.851   1.714 -0.0246  1.9905  0.8365
  500TIP3P    O 1498   0.307   2.834   2.782  0.1259  0.2255 -0.0050
  500TIP3P    H 1499   0.330   2.822   2.875  0.6571  0.3754 -0.1108
  500TIP3P    H 1500   0.239   2.769   2.765 -1.2360  1.3839  0.9482
  501TIP3P    O 1501   0.600   1.065   0.548 -0.1213  0.4070  0.3491
  501TIP3P    H 1502   0.635   1.070   0.459 -0.7061 -0.1769  0.0839
  501TIP3P    H 1503   0.505   1.063   0.536 -0.1901 -0.1102  0.9640
  502TIP3P    O 1504   1.737   1.353   0.737 -0.0666 -0.0861  0.2088
  502TIP3P    H 1505   1.779   1.408   0.671  1.3823 -1.0596  0.2860
  502TIP3P    H 1506   1.752   1.398   0.820 -0.2628  0.2000  0.0874
  503TIP3P    O 1507   1.909   2.463   0.207 -0.5393  0.8099 -0.8246
  503TIP3P    H 1508   1.864   2.547   0.206 -0.8791  0.6810 -4.4059
  503TIP3P    H 1509   1.959   2.462   0.125  2.9008 -0.6802  1.1749
  504TIP3P    O 1510   0.471   2.110   2.708  0.5310 -0.0392 -0.0376
  504TIP3P    H 1511   0.562   2.100   2.683  1.0045  0.6440  1.3521
  504TIP3P    H 1512   0.467   2.194   2.754 -0.9671  0.3539 -0.8296
  505TIP3P    O 1513   0.747   1.313   2.276  0.6162  0.0070 -0.0191
  505TIP3P    H 1514   0.775   1.382   2.337  1.3057 -0.0236 -0.2970
  505TIP3P    H 1515   0.822   1.300   2.218 -0.4362  0.8213 -1.5951
  506TIP3P    O 1516   0.165   0.951   0.353 -0.2219  0.9297 -0.0392
  506TIP3P    H 1517   0.237   0.966   0.413 -0.5751  1.6801  0.2059
  506TIP3P    H 1518   0.097   0.909   0.407  1.2445 -2.9051 -1.0067
  507TIP3P    O 1519   1.801   0.236   2.354 -0.4767  0.7917 -0.6016
  507TIP3P    H 1520   1.709   0.263   2.358 -0.1209  1.8185  1.6162
  507TIP3P    H 1521   1.826   0.223   2.446  0.8447 -2.1493 -1.3226
  508TIP3P    O 1522   2.233   3.106   1.925  0.3345 -0.0213 -0.2216
  508TIP3P    H 1523   2.301   3.038   1.923  0.7038  0.2592  2.1719
  508TIP3P    H 1524   2.164   3.071   1.868  0.9711 -1.9219  0.1219
  509TIP3P    O 1525   1.729   2.901   2.268 -0.5402 -0.1079 -0.1801
  509TIP3P    H 1526   1.766   2.828   2.218  0.0397 -0.5238  0.8389
  509TIP3P    H 1527   1.787   2.911   2.343 -1.8310 -0.0125  0.8412
  510TIP3P    O 1528   1.829   0.775   2.311  0.1862 -0.3694 -0.1763
  510TIP3P    H 1529   1.764   0.789   2.380  0.3449  0.8703 -0.2781
  510TIP3P    H 1530   1.892   0.846   2.323  0.3307 -0.2827 -1.4659
  511TIP3P    O 1531   2.589   1.360   0.097 -0.1168 -0.0285 -0.1172
  511TIP3P    H 1532   2.553   1.272   0.086  1.2886 -0.8008  1.3059
  511TIP3P    H 1533   2.647   1.353   0.173 -0.7251  2.3560  0.6184
  512TIP3P    O 1534   2.811   2.635   1.368  0.3166  0.8008  0.0917
  512TIP3P    H 1535   2.899   2.640   1.331  0.6579  1.1386  0.9443
  512TIP3P    H 1536   2.755   2.614   1.293  1.2156 -0.1480 -0.3256
  513TIP3P    O 1537   1.456   3.065   0.222  0.3477 -0.7251 -0.8022
  513TIP3P    H 1538   1.534   3.070   0.278  0.2026 -0.4299 -0.6260
  513TIP3P    H 1539   1.436   2.971   0.217 -1.3533 -0.5662  2.0135
  514TIP3P    O 1540   2.253   1.615   0.957 -0.2123 -0.4871  0.1143
  514TIP3P    H 1541   2.304   1.602   1.037 -0.8789  0.4348  0.7056
  514TIP3P    H 1542   2.204   1.534   0.945 -0.4175 -0.4746  0.8725
  515TIP3P    O 1543   0.862   0.033   0.086  0.3632  0.0911 -0.0225
  515TIP3P    H 1544   0.916   0.112   0.085  2.6518 -1.4304  0.4840
  515TIP3P    H 1545   0.902  -0.023   0.152 -0.6458 -1.9179 -1.0641
  516TIP3P    O 1546   0.182   2.863   1.641 -0.4108  0.1487 -0.4428
  516TIP3P    H 1547   0.144   2.886   1.556 -0.5017 -0.8985 -0.6916
  516TIP3P    H 1548   0.226   2.943   1.670 -0.5636  0.5783 -1.3745
  517TIP3P    O 1549   1.506   2.143   0.577 -0.0772  0.2641 -0.0531
  517TIP3P    H 1550   1.501   2.218   0.636 -0.2434  1.1300 -1.1561
  517TIP3P    H 1551   1.598   2.118   0.578  0.0809  0.8413 -0.1246
  518TIP3P    O 1552   2.248   0.252   0.640  0.3024 -0.2465 -0.1858
  518TIP3P    H 1553   2.315   0.193   0.675  1.5860  0.5088 -1.2994
  518TIP3P    H 1554   2.196   0.197   0.581 -0.7464 -1.0891  1.4930
  519TIP3P    O 1555   2.563   2.479   1.001 -0.0620  0.5643  0.1049
  519TIP3P    H 1556   2.630   2.536   1.038  1.1938 -0.4630 -0.5252
  519TIP3P    H 1557   2.585   2.392   1.035 -1.3443  0.2945  0.2455
  520TIP3P    O 1558   0.795   1.679   0.530  0.3737  0.3465 -0.6967
  520TIP3P    H 1559   0.769   1.627   0.454 -0.3256 -2.4153  1.3409
  520TIP3P    H 1560   0.884   1.649   0.550 -0.1003 -0.2704  0.5895
  521TIP3P    O 1561   2.379   1.033   2.507  0.2990  0.4775  0.7153
  521TIP3P    H 1562   2.324   1.088   2.563  0.3385  1.2476  0.0173
  521TIP3P    H 1563   2.454   1.089   2.485  1.4210 -0.5938  1.7522
  522TIP3P    O 1564   0.820   2.930   1.879 -0.5807 -0.1523 -0.0332
  522TIP3P    H 1565   0.738   2.881   1.874 -0.9743  0.2569  1.9899
  522TIP3P    H 1566   0.798   3.017   1.845 -0.6689 -0.4461 -0.7175
  523TIP3P    O 1567   1.114   2.320   0.287  0.2968 -0.3385 -0.4458
  523TIP3P    H 1568   1.122   2.250   0.352  1.0802  0.6325  0.5245
  523TIP3P    H 1569   1.147   2.398   0.332  0.9598  0.3194 -2.0430
  524TIP3P    O 1570   0.471   2.475   0.722  0.1321 -0.3962 -0.0400
  524TIP3P    H 1571   0.480   2.386   0.688 -2.1542 -0.2720 -1.1057
  524TIP3P    H 1572   0.406   2.467   0.793  1.2017  0.1482  1.0125
  525TIP3P    O 1573   2.492   2.975   2.207 -0.1182 -0.2219  0.1568
  525TIP3P    H 1574   2.433   3.041   2.242  1.0878  0.0875  1.6975
  525TIP3P    H 1575   2.555   3.024   2.154  1.6130  0.1125  2.4174
  526TIP3P    O 1576   1.877   0.775   0.965 -0.3327 -0.2490 -0.4757
  526TIP3P    H 1577   1.800   0.830   0.954  0.0343  0.3606 -0.0515
  526TIP3P    H 1578   1.919   0.808   1.045 -0.3980 -1.4923  0.0895
  527TIP3P    O 1579   1.192   2.101   0.484  0.5790 -0.1962 -0.0101
  527TIP3P    H 1580   1.212   2.081   0.575  0.4331  0.5610  0.1884
  527TIP3P    H 1581   1.098   2.087   0.476  0.5151  0.2008  0.0698
  528TIP3P    O 1582   1.216   2.514   1.676 -0.3480  0.3758 -0.1039
  528TIP3P    H 1583   1.188   2.452   1.744  0.6299  0.7303  0.6251
  528TIP3P    H 1584   1.228   2.459   1.598  1.1589 -0.4918  0.7040
  529TIP3P    O 1585   1.774   1.261   2.999 -0.2457 -0.2487 -0.5495
  529TIP3P    H 1586   1.682   1.283   2.989 -0.0595  0.2199 -1.2661
  529TIP3P    H 1587   1.821   1.332   2.954  0.4826 -0.1299  0.3844
  530TIP3P    O 1588   2.916   2.579   2.712 -0.4063  0.1781 -0.6137
  530TIP3P    H 1589   2.910   2.484   2.713 -0.0644  0.1513 -0.9054
  530TIP3P    H 1590   2.903   2.604   2.804 -0.4725 -0.1510 -0.5315
  531TIP3P    O 1591   0.933   0.723   1.444 -0.2605  0.0019 -0.4600
  531TIP3P    H 1592   0.929   0.780   1.521 -0.4686 -1.3107  0.5189
  531TIP3P    H 1593   0.944   0.783   1.370  1.8067  1.1814  0.7566
  532TIP3P    O 1594   1.986   0.412   1.320 -0.1158  0.7175  0.3122
  532TIP3P    H 1595   2.027   0.498   1.309 -0.2474  0.7224 -0.1483
  532TIP3P    H 1596   2.053   0.359   1.365  0.3047  0.7960 -0.2191
  533TIP3P    O 1597   2.557   1.218   2.357 -0.7168 -0.0336 -0.0620
  533TIP3P    H 1598   2.602   1.138   2.329  2.6867  1.7751 -0.0056
  533TIP3P    H 1599   2.503   1.243   2.282  0.3239 -0.8649 -1.0971
  534TIP3P    O 1600   1.330   1.893   1.346 -0.1190  0.3553 -0.1085
  534TIP3P    H 1601   1.373   1.937   1.419  2.0715 -0.0849 -1.1107
  534TIP3P    H 1602   1.272   1.960   1.309  0.6940  1.3780  0.4259
  535TIP3P    O 1603   1.832   2.219   2.860 -0.1055  0.2657 -0.5660
  535TIP3P    H 1604   1.896   2.214   2.789 -1.7703  1.2732 -2.1674
  535TIP3P    H 1605   1.760   2.163   2.830 -0.8934  0.8472  0.2485
  536TIP3P    O 1606   2.738   1.271   0.529 -0.3693  0.2120  0.6662
  536TIP3P    H 1607   2.677   1.344   0.542  0.4446  0.8686  0.8427
  536TIP3P    H 1608   2.682   1.198   0.501 -1.3224  0.5969  1.5451
  537TIP3P    O 1609   0.007   1.761   2.867 -0.5914  0.0670  0.0048
  537TIP3P    H 1610   0.028   1.770   2.774  0.6292 -2.0272  0.0466
  537TIP3P    H 1611   0.041   1.841   2.907  1.2346 -0.1943 -0.9719
  538TIP3P    O 1612   2.522   1.451   0.573 -0.7015  0.3829  0.0882
  538TIP3P    H 1613   2.482   1.404   0.500  0.2484  0.2540 -0.3619
  538TIP3P    H 1614   2.476   1.535   0.577 -0.3502  0.6392 -1.0645
  539TIP3P    O 1615   0.291   3.076   1.781 -0.1849 -0.3446 -0.0932
  539TIP3P    H 1616   0.327   3.064   1.869 -0.1579 -0.2762 -0.0958
  539TIP3P    H 1617   0.282   3.171   1.771 -1.9418 -0.4158  0.5527
  540TIP3P    O 1618   0.524   2.546   0.046 -0.0206 -0.0463  0.2854
  540TIP3P    H 1619   0.602   2.552   0.101  0.6949  0.8721 -0.8374
  540TIP3P    H 1620   0.539   2.469  -0.009  0.9592  1.2336 -1.2665
  541TIP3P    O 1621   1.495   2.845   1.842  0.0174  0.4069  0.2318
  541TIP3P    H 1622   1.534   2.836   1.929 -1.1594  1.5887  0.8972
  541TIP3P    H 1623   1.423   2.782   1.841  0.5600 -0.2113 -0.1991
  542TIP3P    O 1624   0.561   1.838   2.811 -0.1334  0.1658  0.5005
  542TIP3P    H 1625   0.584   1.824   2.903  1.5697  1.0784  0.2212
  542TIP3P    H 1626   0.642   1.822   2.763 -0.9344  0.0142 -0.8209
  543TIP3P    O 1627   1.408   1.968   0.065 -0.3406  0.4639 -0.1075
  543TIP3P    H 1628   1.501   1.989   0.070  0.6731 -3.3803 -0.5945
  543TIP3P    H 1629   1.397   1.895   0.126 -2.2920 -1.2816 -2.4268
  544TIP3P    O 1630   0.691   0.546   1.157  0.3224  0.8481  0.5323
  544TIP3P    H 1631   0.634   0.529   1.083  2.0005  0.1632 -0.6427
  544TIP3P    H 1632   0.780   0.544   1.120  1.2162  0.0819  2.6335
  545TIP3P    O 1633   0.507   2.479   2.736 -0.2345 -0.3069  0.3216
  545TIP3P    H 1634   0.489   2.573   2.741  1.3309  0.2903 -3.5947
  545TIP3P    H 1635   0.603   2.473   2.741 -0.3305 -1.7083  0.5735
  546TIP3P    O 1636   2.913   2.063   0.399  0.1501 -0.5760  0.2903
  546TIP3P    H 1637   2.907   2.006   0.322  0.3496 -0.8309  0.4639
  546TIP3P    H 1638   2.829   2.051   0.444  0.8302 -2.0218  1.2267
  547TIP3P    O 1639   2.430   2.842   0.493 -0.5219  0.9460  0.1652
  547TIP3P    H 1640   2.512   2.880   0.525 -0.3914 -0.1425  1.1821
  547TIP3P    H 1641   2.452   2.808   0.406  0.3013  0.0291  0.7260
  548TIP3P    O 1642   1.836   2.254   2.036 -0.2631 -0.3172  0.5283
  548TIP3P    H 1643   1.827   2.175   1.983  1.3514 -1.2598  1.6414
  548TIP3P    H 1644   1.832   2.223   2.126 -1.1012  1.0589  0.9848
  549TIP3P    O 1645   1.172   1.442   2.815 -0.4255  0.0122 -0.1638
  549TIP3P    H 1646   1.134   1.513   2.762  0.2937  0.6264  0.1420
  549TIP3P    H 1647   1.131   1.362   2.780 -0.2272  0.4402 -1.4220
  550TIP3P    O 1648   2.586   0.428   0.204  0.3295 -0.3439 -0.2800
  550TIP3P    H 1649   2.652   0.362   0.184 -0.4467 -0.8833 -1.1155
  550TIP3P    H 1650   2.605   0.500   0.143 -0.1085 -0.6829 -0.8278
  551TIP3P    O 1651   0.623   1.623   1.364 -0.1937 -0.4376 -0.4620
  551TIP3P    H 1652   0.636   1.531   1.383  1.3560 -0.4485 -1.5441
  551TIP3P    H 1653   0.708   1.655   1.333 -0.5664  1.4629  0.3455
  552TIP3P    O 1654   2.758   1.490   1.895 -0.0678  0.3211  0.1695
  552TIP3P    H 1655   2.722   1.401   1.896 -0.4615  0.4626 -0.9939
  552TIP3P    H 1656   2.839   1.483   1.947  0.6732 -1.0535 -1.1243
  553TIP3P    O 1657   1.136   1.170   0.715  0.5311  0.5690  0.6627
  553TIP3P    H 1658   1.210   1.177   0.776  1.1420 -2.2135  0.3383
  553TIP3P    H 1659   1.109   1.260   0.699  2.4639  1.5199  2.4968
  554TIP3P    O 1660   1.445   2.746   0.276  0.2026  0.1695  0.7030
  554TIP3P    H 1661   1.464   2.652   0.272 -2.1863 -0.2807 -1.5509
  554TIP3P    H 1662   1.432   2.764   0.369 -1.7950 -2.2912  0.9479
  555TIP3P    O 1663   2.421   3.077   1.143 -0.6570 -0.1587 -0.3970
  555TIP3P    H 1664   2.374   3.111   1.068 -0.1398  1.1966 -0.1239
  555TIP3P    H 1665   2.438   3.153   1.198 -0.7270 -1.0697  0.9386
  556TIP3P    O 1666   1.501   2.300   1.424  0.1885  0.2035 -0.2079
  556TIP3P    H 1667   1.407   2.315   1.436 -0.0003 -1.1061  0.0657
  556TIP3P    H 1668   1.514   2.303   1.330 -0.3786 -1.0015 -0.3303
  557TIP3P    O 1669   0.872   1.717   2.119 -0.6116  0.4031  0.0054
  557TIP3P    H 1670   0.844   1.667   2.195  1.7123  0.0327  0.6520
  557TIP3P    H 1671   0.845   1.664   2.044 -0.3575 -0.6056  0.6290
  558TIP3P    O 1672   0.949   3.042   2.866  0.2358 -0.6388  0.2528
  558TIP3P    H 1673   0.872   3.091   2.896  2.2318  0.8705  3.2087
  558TIP3P    H 1674   0.985   3.005   2.947  2.4344 -1.5499 -1.1303
  559TIP3P    O 1675   2.280   2.893   0.743  0.2224  0.2193  0.4075
  559TIP3P    H 1676   2.272   2.946   0.664  0.0995 -0.4122 -0.0037
  559TIP3P    H 1677   2.372   2.901   0.768  0.3683  0.0359 -0.0693
  560TIP3P    O 1678   0.167   0.113   0.757 -0.1804 -0.0998 -0.0919
  560TIP3P    H 1679   0.136   0.196   0.791 -1.2887 -1.8361  3.3585
  560TIP3P    H 1680   0.098   0.083   0.698  1.0847  2.2465 -2.8769
  561TIP3P    O 1681   0.447   1.237   2.879  0.3467 -0.1333 -0.5717
  561TIP3P    H 1682   0.434   1.290   2.800 -1.9840  2.9322  1.7436
  561TIP3P    H 1683   0.538   1.253   2.903  0.2985  1.1175 -1.1329
  562TIP3P    O 1684   0.165   2.561   2.581  0.5436 -0.3108  0.1992
  562TIP3P    H 1685   0.183   2.477   2.622  0.3628 -0.7532 -0.6277
  562TIP3P    H 1686   0.122   2.612   2.650  0.6435 -0.8933  0.6992
  563TIP3P    O 1687   1.390   1.735   2.189  0.2928 -0.5611  0.3237
  563TIP3P    H 1688   1.401   1.646   2.223 -1.5732 -0.7149  0.5755
  563TIP3P    H 1689   1.351   1.784   2.261 -0.0094  0.1008 -0.2796
  564TIP3P    O 1690   2.362   1.320   2.182 -0.0620  0.0636 -0.2411
  564TIP3P    H 1691   2.431   1.383   2.165  0.6952 -0.7487 -0.2046
  564TIP3P    H 1692   2.300   1.366   2.238  0.5345  0.7352 -0.1326
  565TIP3P    O 1693   1.146   1.777   2.929  0.0581 -0.1036  0.3585
  565TIP3P    H 1694   1.176   1.699   2.975 -1.1018 -0.8070 -0.0573
  565TIP3P    H 1695   1.131   1.748   2.839  3.1208  1.4468 -0.7188
  566TIP3P    O 1696   1.884   0.442   2.622  0.9297  0.3743  0.0016
  566TIP3P    H 1697   1.953   0.395   2.575  1.6115  0.9830  0.3713
  566TIP3P    H 1698   1.932   0.500   2.681  0.0830  0.0834  0.9747
  567TIP3P    O 1699   0.739   0.335   2.673 -0.1883 -0.5106 -0.3438
  567TIP3P    H 1700   0.668   0.366   2.617  0.8730  0.0508 -1.4143
  567TIP3P    H 1701   0.785   0.269   2.620  0.6059 -0.2422 -0.0029
  568TIP3P    O 1702   2.532   0.010   0.130  0.1642 -0.2564 -0.0528
  568TIP3P    H 1703   2.511   0.103   0.124  3.2383  0.4469 -0.4469
  568TIP3P    H 1704   2.544  -0.017   0.038 -1.3586 -1.2116  0.0152
  569TIP3P    O 1705   0.378   1.722   0.810 -0.1416  0.7004 -0.5760
  569TIP3P    H 1706   0.336   1.751   0.729  0.6639 -1.8601 -1.9647
  569TIP3P    H 1707   0.472   1.738   0.795  0.1076 -0.7420 -0.5693
  570TIP3P    O 1708   1.818   1.542   0.567 -0.1582 -0.7023  0.3400
  570TIP3P    H 1709   1.878   1.597   0.618 -2.2080  0.0111  2.0874
  570TIP3P    H 1710   1.779   1.603   0.504 -1.1428 -0.4967  1.1256
  571TIP3P    O 1711   0.470   0.404   2.510 -0.2296 -0.1914 -0.2655
  571TIP3P    H 1712   0.412   0.336   2.475  0.8743 -1.5538  0.4970
  571TIP3P    H 1713   0.544   0.406   2.448 -0.0893  0.0571 -0.0909
  572TIP3P    O 1714   2.964   0.681   2.455 -0.3563 -0.1162 -0.1270
  572TIP3P    H 1715   3.009   0.711   2.377  0.9614 -0.6827  0.3962
  572TIP3P    H 1716   2.934   0.761   2.498  0.3829  0.2856 -0.3477
  573TIP3P    O 1717   2.188   2.745   0.433 -0.0116  0.0744  0.3793
  573TIP3P    H 1718   2.273   2.778   0.461 -0.5486  0.2188  1.9007
  573TIP3P    H 1719   2.193   2.651   0.449 -0.0305  0.0414  0.1875
  574TIP3P    O 1720   1.783   2.090   1.357 -0.2095  0.7104 -0.2250
  574TIP3P    H 1721   1.772   2.185   1.347 -1.2470  0.6792  0.6641
  574TIP3P    H 1722   1.837   2.080   1.435  0.2151  0.5666 -0.5286
  575TIP3P    O 1723   0.612   1.407   0.832  0.0247  0.1932  0.3942
  575TIP3P    H 1724   0.637   1.478   0.773 -0.1910 -0.7665 -0.8761
  575TIP3P    H 1725   0.653   1.329   0.794 -0.7975 -0.5716  1.0466
  576TIP3P    O 1726   2.884   0.445   0.427  0.2186  0.2620 -0.3446
  576TIP3P    H 1727   2.977   0.453   0.451  0.3102  1.0075 -0.9571
  576TIP3P    H 1728   2.871   0.511   0.360 -1.0118  0.8504  0.4633
  577TIP3P    O 1729   1.702   2.019   0.053  0.0806 -0.6948  0.0121
  577TIP3P    H 1730   1.784   2.054   0.089 -1.2546 -0.9088  3.4598
  577TIP3P    H 1731   1.726   1.933   0.018  1.7776  0.2279 -1.1628
  578TIP3P    O 1732   1.544   1.591   2.544 -0.3961 -0.0919  0.4220
  578TIP3P    H 1733   1.469   1.533   2.531  0.2753 -0.8114 -0.2796
  578TIP3P    H 1734   1.507   1.668   2.587 -1.4689 -0.6097  0.4509
  579TIP3P    O 1735   2.224   1.498   2.890  0.1489 -0.2808 -0.1989
  579TIP3P    H 1736   2.281   1.440   2.940  0.3270  0.8851  0.9859
  579TIP3P    H 1737   2.284   1.556   2.843 -0.0354  0.2768  0.2424
  580TIP3P    O 1738   2.820   0.452   2.783  0.4200  0.0974  0.4719
  580TIP3P    H 1739   2.802   0.444   2.689 -0.5816  1.9251  0.4962
  580TIP3P    H 1740   2.916   0.459   2.788  0.5177 -0.5464 -0.3469
  581TIP3P    O 1741   0.604   1.804   3.089 -0.4129 -0.3496  0.1541
  581TIP3P    H 1742   0.693   1.834   3.107 -0.3342 -0.4183 -0.1127
  581TIP3P    H 1743   0.581   1.750   3.165 -0.6217  0.5240  0.7183
  582TIP3P    O 1744   0.742   2.089   2.642  0.2023  0.0493 -0.0258
  582TIP3P    H 1745   0.734   1.994   2.641  0.9593 -0.0178  0.0212
  582TIP3P    H 1746   0.832   2.106   2.616  0.3396  0.7244  0.8725
  583TIP3P    O 1747   0.911   2.665   2.176 -0.4758  0.0364  0.3094
  583TIP3P    H 1748   0.880   2.744   2.220 -0.3606 -0.9096  2.1567
  583TIP3P    H 1749   1.006   2.673   2.177 -0.4310 -0.5496  1.3378
  584TIP3P    O 1750   0.399   0.939   0.174 -0.0079 -0.0296  0.3159
  584TIP3P    H 1751   0.389   0.996   0.097  0.6509  0.2787  0.4531
  584TIP3P    H 1752   0.315   0.946   0.219 -0.1095  0.4471  0.0667
  585TIP3P    O 1753   0.940   0.134   1.525  0.7274  0.5813 -0.4283
  585TIP3P    H 1754   0.987   0.059   1.562  0.3891  0.5927  0.0274
  585TIP3P    H 1755   0.934   0.115   1.432 -3.5732 -2.2619  0.3122
  586TIP3P    O 1756   2.605   0.387   1.454 -0.0575  0.0839 -0.1725
  586TIP3P    H 1757   2.557   0.456   1.501  0.9857  1.2414 -0.7797
  586TIP3P    H 1758   2.640   0.331   1.524  0.0777  0.8537  0.3915
  587TIP3P    O 1759   2.683   0.389   0.637 -0.6982  0.0589 -0.1991
  587TIP3P    H 1760   2.760   0.399   0.693 -1.0955  0.5467  0.2543
  587TIP3P    H 1761   2.713   0.417   0.550 -0.6631  1.2553  0.1989
  588TIP3P    O 1762   1.531   2.220   0.110  0.1515 -0.0220  0.2351
  588TIP3P    H 1763   1.475   2.181   0.177 -1.9098  1.3694 -0.6283
  588TIP3P    H 1764   1.602   2.158   0.099 -1.3401 -1.9583  1.2225
  589TIP3P    O 1765   1.767   2.691   0.208 -0.1976  0.8300 -0.0443
  589TIP3P    H 1766   1.721   2.732   0.281 -0.2921  0.0729  0.3339
  589TIP3P    H 1767   1.805   2.763   0.159 -1.9107  1.5017 -0.4390
  590TIP3P    O 1768   0.102   0.286   2.027  0.0735  0.8006 -0.5780
  590TIP3P    H 1769   0.116   0.219   1.960 -0.7435 -1.0802  1.0789
  590TIP3P    H 1770   0.177   0.345   2.020  2.1690 -1.7834 -0.3328
  591TIP3P    O 1771   2.046   1.030   2.150  0.2594  0.2967  0.5901
  591TIP3P    H 1772   1.978   0.965   2.134 -0.2581  0.5993  1.5210
  591TIP3P    H 1773   2.008   1.112   2.121  0.1526  0.4988  1.2980
  592TIP3P    O 1774   2.663   0.210   1.658  0.3304  0.0281 -0.5129
  592TIP3P    H 1775   2.679   0.121   1.688 -0.5558  0.6451  1.9722
  592TIP3P    H 1776   2.599   0.245   1.721 -0.1857  2.0413 -2.0946
  593TIP3P    O 1777   2.460   2.673   0.823 -0.2923 -0.3142  0.0617
  593TIP3P    H 1778   2.521   2.745   0.807 -0.1185 -0.7745 -1.4845
  593TIP3P    H 1779   2.502   2.620   0.890  0.6081 -0.1577 -0.3725
  594TIP3P    O 1780   2.932   1.504   2.728 -0.3079  0.0376 -0.2571
  594TIP3P    H 1781   2.947   1.445   2.802  0.6429 -0.4311 -0.8131
  594TIP3P    H 1782   2.933   1.592   2.766  2.3530 -0.0635 -0.0270
  595TIP3P    O 1783   0.943   2.110   0.515  0.5138  0.1233 -0.0574
  595TIP3P    H 1784   0.921   2.176   0.580  1.1539 -0.5670  0.8696
  595TIP3P    H 1785   0.868   2.110   0.455 -0.3163  0.4034  0.9687
  596TIP3P    O 1786   1.426   2.452   0.410  0.7773 -0.2034 -0.2439
  596TIP3P    H 1787   1.392   2.376   0.361  2.2927 -1.1656  0.1749
  596TIP3P    H 1788   1.349   2.507   0.425 -0.2056 -1.2748 -1.2418
  597TIP3P    O 1789   2.722   0.221   0.029 -0.2343  0.1269  0.1977
  597TIP3P    H 1790   2.805   0.230  -0.018  0.5468  2.9943  1.9457
  597TIP3P    H 1791   2.655   0.246  -0.035  0.3388 -1.0359 -0.8729
  598TIP3P    O 1792   2.667   0.614   1.762 -0.3313  0.5042  0.0506
  598TIP3P    H 1793   2.602   0.681   1.782  1.4105  2.0036  0.8184
  598TIP3P    H 1794   2.718   0.604   1.842  0.4271 -0.6261 -0.5495
  599TIP3P    O 1795   2.520   2.451   0.322 -0.0059 -0.0061  0.0062
  599TIP3P    H 1796   2.504   2.479   0.413 -1.9244 -2.6185  0.5290
  599TIP3P    H 1797   2.455   2.499   0.271 -1.0868 -0.9498  0.4651
  600TIP3P    O 1798   2.703   2.730   2.597 -0.2019 -0.1983 -0.3747
  600TIP3P    H 1799   2.769   2.662   2.607 -0.2642 -0.2153 -0.0676
  600TIP3P    H 1800   2.747   2.811   2.624 -0.6158 -0.3672  0.8576
  601TIP3P    O 1801   3.029   1.260   1.053 -0.0865 -0.1700 -0.2324
  601TIP3P    H 1802   3.003   1.320   1.122 -0.7001  1.3427 -1.7330
  601TIP3P    H 1803   3.123   1.275   1.041  0.1734 -0.9504  0.7335
  602TIP3P    O 1804   2.587   0.840   2.455 -0.2071 -0.6883  0.3892
  602TIP3P    H 1805   2.496   0.868   2.468 -0.1223 -0.9433  1.6447
  602TIP3P    H 1806   2.582   0.744   2.457 -0.1411 -0.7337 -1.2738
  603TIP3P    O 1807   2.396   2.045   2.166  0.0600  0.1378  0.3969
  603TIP3P    H 1808   2.436   2.088   2.241 -1.3270 -0.0204  1.2438
  603TIP3P    H 1809   2.371   2.116   2.107 -0.2063  0.3529  0.7704
  604TIP3P    O 1810   0.247   2.598   1.722 -0.6770 -0.2263  0.4782
  604TIP3P    H 1811   0.329   2.604   1.771 -0.5797  0.6724  0.2173
  604TIP3P    H 1812   0.241   2.681   1.675 -1.1920 -0.7284 -0.3707
  605TIP3P    O 1813   1.777   0.267   0.813 -0.2709 -0.1954  0.0344
  605TIP3P    H 1814   1.864   0.298   0.789 -1.0610  1.7226 -0.4318
  605TIP3P    H 1815   1.793   0.188   0.865  1.7062 -0.2613 -0.6526
  606TIP3P    O 1816   1.894   0.057   2.570 -0.4070  0.4560 -0.4918
  606TIP3P    H 1817   1.897   0.031   2.662 -1.9694  0.1911 -0.5105
  606TIP3P    H 1818   1.807   0.031   2.540  0.3277 -0.0699 -2.2317
  607TIP3P    O 1819   0.991   1.969   1.086  0.0851 -0.4195  0.8873
  607TIP3P    H 1820   0.993   1.954   0.992 -0.7777 -1.0033  0.9633
  607TIP3P    H 1821   0.898   1.969   1.109  0.3327 -1.4326  1.9218
  608TIP3P    O 1822   1.082   2.768   2.479 -0.3333  0.3940  0.3415
  608TIP3P    H 1823   1.042   2.686   2.451 -0.5738  0.9269 -0.9317
  608TIP3P    H 1824   1.141   2.743   2.550 -1.7481 -0.6155  1.1736
  609TIP3P    O 1825   2.188   1.882   0.410  0.3217 -0.4183 -0.3147
  609TIP3P    H 1826   2.115   1.822   0.427 -1.4817  1.5495 -0.7830
  609TIP3P    H 1827   2.234   1.889   0.494 -1.4451  0.0976  0.6437
  610TIP3P    O 1828   1.802   2.390   1.346 -0.1554 -0.3403 -0.1643
  610TIP3P    H 1829   1.715   2.383   1.307 -1.1443 -0.3182  1.9280
  610TIP3P    H 1830   1.798   2.469   1.400  0.5291 -1.3514  1.4200
  611TIP3P    O 1831   1.641   3.051   3.076  0.3038  0.0492  0.4178
  611TIP3P    H 1832   1.644   3.088   3.165 -0.5612  0.7070  0.1859
  611TIP3P    H 1833   1.588   2.971   3.086 -2.2102  1.6017  0.0150
  612TIP3P    O 1834   2.305   0.620   2.274  0.5424 -0.3809  0.7135
  612TIP3P    H 1835   2.321   0.707   2.238  0.8465 -0.5983  0.3170
  612TIP3P    H 1836   2.241   0.581   2.214  1.4099 -0.9208  0.1411
  613TIP3P    O 1837   1.734   3.062   0.646 -0.4307  0.0592 -0.1172
  613TIP3P    H 1838   1.813   3.101   0.610 -0.0754  0.7467  1.3686
  613TIP3P    H 1839   1.731   3.091   0.737 -2.2606 -0.1588 -0.0712
  614TIP3P    O 1840   0.524   0.464   2.123  0.1751 -0.2488 -0.0868
  614TIP3P    H 1841   0.445   0.471   2.070  1.3045 -0.6434 -1.8716
  614TIP3P    H 1842   0.596   0.473   2.061  1.5472 -1.2700  1.2941
  615TIP3P    O 1843   2.994   0.804   2.945 -0.0309  0.1502  0.2078
  615TIP3P    H 1844   3.088   0.824   2.946  0.0371 -0.1581  2.1344
  615TIP3P    H 1845   2.983   0.745   2.871  1.3021  0.2047 -0.0473
  616TIP3P    O 1846   0.153   2.289   1.749 -0.3828  0.3446  0.6077
  616TIP3P    H 1847   0.063   2.270   1.723  0.2035  0.2407 -1.4426
  616TIP3P    H 1848   0.147   2.368   1.803 -1.5951  0.9480 -0.3854
  617TIP3P    O 1849   2.112   1.052   1.238  0.2310  0.3252  0.1243
  617TIP3P    H 1850   2.021   1.070   1.260  0.4456  3.1388 -0.9857
  617TIP3P    H 1851   2.108   0.984   1.171 -1.0081 -0.2621  0.7892
  618TIP3P    O 1852   0.261   1.986   2.884  1.0695 -0.0047  0.6228
  618TIP3P    H 1853   0.311   1.988   2.802  1.1856  2.4725  0.7315
  618TIP3P    H 1854   0.169   1.994   2.857  0.9556 -1.2209  0.6260
  619TIP3P    O 1855   0.140   2.895   1.317 -0.0867 -0.0819  0.0793
  619TIP3P    H 1856   0.091   2.977   1.313  0.1035  0.0116 -0.3800
  619TIP3P    H 1857   0.181   2.888   1.231  0.3103 -0.4031  0.2949
  620TIP3P    O 1858   2.508   3.115   2.476 -0.5178  0.1009 -0.2462
  620TIP3P    H 1859   2.471   3.200   2.452 -1.2127  0.1179  0.8779
  620TIP3P    H 1860   2.431   3.061   2.496 -0.1584 -1.1867 -2.1972
  621TIP3P    O 1861   1.525   2.031   0.944  0.4490 -0.2683  0.5987
  621TIP3P    H 1862   1.505   2.124   0.952 -1.2198 -0.5537  0.0122
  621TIP3P    H 1863   1.554   2.006   1.032 -0.2709  0.5514  1.0845
  622TIP3P    O 1864   0.122   1.815   1.847  0.6457  0.0140  0.1662
  622TIP3P    H 1865   0.192   1.786   1.788  0.6406 -0.2500  0.2909
  622TIP3P    H 1866   0.119   1.748   1.915  1.2237  0.7537  0.9216
  623TIP3P    O 1867   1.801   2.348   1.666  0.4052 -0.1539  0.1014
  623TIP3P    H 1868   1.857   2.294   1.610 -0.0968  1.5194 -2.0581
  623TIP3P    H 1869   1.863   2.399   1.719  0.9348  0.9040 -1.5195
  624TIP3P    O 1870   0.083   0.681   1.060  0.6156 -0.0295 -0.2038
  624TIP3P    H 1871   0.137   0.603   1.077 -1.5577 -1.7932 -1.0417
  624TIP3P    H 1872   0.051   0.707   1.147  1.9864  0.4178  0.1740
  625TIP3P    O 1873   2.758   2.300   3.100  0.7819 -0.0788 -0.0941
  625TIP3P    H 1874   2.714   2.263   3.177  2.1680 -1.3931  0.0763
  625TIP3P    H 1875   2.718   2.386   3.089 -0.8058 -0.6560  0.9344
  626TIP3P    O 1876   2.211   2.375   2.192 -0.3256  0.5251 -0.7943
  626TIP3P    H 1877   2.232   2.311   2.124  0.9590 -0.2143  0.2732
  626TIP3P    H 1878   2.286   2.435   2.193  0.5682 -0.5606  1.2101
  627TIP3P    O 1879   1.644   0.699   0.446  0.1772  0.1842 -0.1385
  627TIP3P    H 1880   1.668   0.787   0.419 -0.0378  0.4820  0.6217
  627TIP3P    H 1881   1.691   0.685   0.528 -1.0673  0.2114  0.5900
  628TIP3P    O 1882   0.388   1.363   1.416 -0.1254  0.4422  0.1521
  628TIP3P    H 1883   0.357   1.273   1.418 -2.5798  1.2681  1.3836
  628TIP3P    H 1884   0.404   1.381   1.323 -1.0045 -0.7996 -0.2418
  629TIP3P    O 1885   1.652   1.464   0.274 -0.2477  0.1110 -0.0280
  629TIP3P    H 1886   1.583   1.424   0.326 -0.8114  2.2590  0.8939
  629TIP3P    H 1887   1.612   1.480   0.188 -0.7932  1.0453  0.3993
  630TIP3P    O 1888   1.917   0.742   2.049 -0.3711 -0.2495 -0.0779
  630TIP3P    H 1889   1.907   0.735   2.144 -0.4312 -0.4101 -0.0955
  630TIP3P    H 1890   2.003   0.703   2.031 -1.4413 -2.5788 -0.3633
  631TIP3P    O 1891   0.249   2.692   2.364  0.1782 -0.2125  0.1443
  631TIP3P    H 1892   0.209   2.639   2.434  0.1273 -0.0356  0.2488
  631TIP3P    H 1893   0.177   2.740   2.325  0.0986 -0.8480 -0.5012
  632TIP3P    O 1894   2.731   2.936   1.384 -0.5442 -0.3412 -0.0103
  632TIP3P    H 1895   2.638   2.915   1.378 -0.3750 -1.6294  1.5839
  632TIP3P    H 1896   2.775   2.852   1.378  0.5122  0.2244 -0.3623
  633TIP3P    O 1897   1.052   0.216   0.073  0.8939  0.4328  0.3214
  633TIP3P    H 1898   1.115   0.246   0.008  2.8141 -1.2103  1.3702
  633TIP3P    H 1899   1.104   0.201   0.152 -0.8312 -0.7190  1.2769
  634TIP3P    O 1900   0.849   0.918   0.981 -0.1498  0.6585 -0.1278
  634TIP3P    H 1901   0.763   0.885   1.008 -0.2720 -0.1976 -1.5181
  634TIP3P    H 1902   0.873   0.864   0.906  2.2095  0.0060  1.0586
  635TIP3P    O 1903   2.620   2.209   0.255 -0.0534  0.0229  0.1715
  635TIP3P    H 1904   2.593   2.296   0.283 -3.5099 -0.2486 -1.9771
  635TIP3P    H 1905   2.552   2.151   0.289  0.8026 -1.4931 -0.6713
  636TIP3P    O 1906   0.173   1.119   0.730 -0.5810  0.6829  0.0453
  636TIP3P    H 1907   0.232   1.172   0.784 -2.1102  1.0484  1.4172
  636TIP3P    H 1908   0.092   1.169   0.727 -1.4962 -0.7635 -0.0821
  637TIP3P    O 1909   1.170   2.991   0.878 -0.0081  0.3256  0.3537
  637TIP3P    H 1910   1.130   3.059   0.933  0.6706  1.5118 -0.5918
  637TIP3P    H 1911   1.255   3.028   0.853  0.2166 -0.7341 -0.4638
  638TIP3P    O 1912   0.216   0.437   1.108 -0.6493 -0.0158  0.5509
  638TIP3P    H 1913   0.289   0.375   1.115 -0.4388  0.2635  0.8102
  638TIP3P    H 1914   0.139   0.381   1.101 -0.1579 -0.3595 -2.9560
  639TIP3P    O 1915   1.885   0.660   0.166  0.5989  0.3707  0.2139
  639TIP3P    H 1916   1.830   0.587   0.197  1.7663 -1.6028 -2.2329
  639TIP3P    H 1917   1.823   0.732   0.156 -1.0791 -1.0240  0.1331
  640TIP3P    O 1918   1.778   3.096   0.310  0.1067 -0.0773  0.0339
  640TIP3P    H 1919   1.743   3.009   0.331  0.0701  0.4292  2.1813
  640TIP3P    H 1920   1.816   3.127   0.392  0.3212  1.8586 -0.7758
  641TIP3P    O 1921   1.931   2.164   0.119 -0.3606 -0.9973 -0.2438
  641TIP3P    H 1922   2.017   2.163   0.162 -0.3694 -0.5014 -0.2079
  641TIP3P    H 1923   1.897   2.253   0.135 -0.2894 -0.7456 -1.4294
  642TIP3P    O 1924   1.355   0.700   0.436  0.3012  0.5854  0.7054
  642TIP3P    H 1925   1.368   0.607   0.455  0.2035  0.5317  0.5078
  642TIP3P    H 1926   1.442   0.732   0.413 -0.0600  0.0099 -1.5550
  643TIP3P    O 1927   2.062   0.279   2.898  0.1615 -0.1315  0.3526
  643TIP3P    H 1928   2.128   0.326   2.949 -0.5518 -0.2155  1.3870
  643TIP3P    H 1929   1.979   0.300   2.942 -0.4418 -0.4026 -0.6399
  644TIP3P    O 1930   0.421   2.455   2.454 -0.2615  0.1392 -0.0777
  644TIP3P    H 1931   0.438   2.426   2.544  1.0872 -0.2550 -0.4547
  644TIP3P    H 1932   0.357   2.526   2.464  0.6774  0.8087  1.2745
  645TIP3P    O 1933   1.452   0.451   0.524  0.8725 -0.3650  0.2807
  645TIP3P    H 1934   1.544   0.424   0.517  0.8095 -0.1635 -1.6374
  645TIP3P    H 1935   1.407   0.400   0.457  0.1150  1.8194 -0.9173
  646TIP3P    O 1936   1.155   2.383   2.573 -0.2882 -0.0262  0.1789
  646TIP3P    H 1937   1.121   2.422   2.493 -0.9598 -0.3831  0.2851
  646TIP3P    H 1938   1.145   2.452   2.639 -0.0730  0.1421  0.0357
  647TIP3P    O 1939   0.977   0.692   2.293 -0.6214  0.6756  0.2171
  647TIP3P    H 1940   0.913   0.762   2.284 -1.5650 -0.3099 -1.0477
  647TIP3P    H 1941   0.933   0.615   2.257 -0.1218 -0.8826  2.8037
  648TIP3P    O 1942   0.372   0.365   1.352  0.4729 -0.0826  0.0624
  648TIP3P    H 1943   0.405   0.360   1.262 -0.4967 -1.1141 -0.2340
  648TIP3P    H 1944   0.360   0.459   1.368  2.0466  0.2117 -0.3622
  649TIP3P    O 1945   2.987   1.492   1.253  0.1868  0.2076  1.0440
  649TIP3P    H 1946   2.995   1.432   1.327  0.3212  0.1891  1.0130
  649TIP3P    H 1947   2.929   1.562   1.285  0.3581  0.2717  1.2121
  650TIP3P    O 1948   0.582   1.110   1.048  0.1094  0.3716 -0.1567
  650TIP3P    H 1949   0.677   1.104   1.042  0.1169 -0.2193  0.4655
  650TIP3P    H 1950   0.551   1.024   1.020 -0.3265  1.1448 -2.0867
  651TIP3P    O 1951   1.415   1.001   2.135 -0.1400 -0.3720  0.3197
  651TIP3P    H 1952   1.437   0.971   2.046 -0.5512  0.3921 -0.0480
  651TIP3P    H 1953   1.368   0.928   2.174 -1.0299 -0.2605 -0.5295
  652TIP3P    O 1954   2.499   0.226   1.264 -0.0555  0.2743 -0.6017
  652TIP3P    H 1955   2.498   0.289   1.336 -0.7711  1.9606 -2.0559
  652TIP3P    H 1956   2.586   0.185   1.269 -0.3189 -0.0608  1.5507
  653TIP3P    O 1957   1.732   1.181   2.293 -0.6212 -0.0272 -0.0611
  653TIP3P    H 1958   1.804   1.127   2.325 -0.8597 -0.5728 -0.4357
  653TIP3P    H 1959   1.654   1.128   2.311 -0.9762  0.8003  0.8593
  654TIP3P    O 1960   2.697   1.360   2.887 -0.3310 -0.4405 -0.0240
  654TIP3P    H 1961   2.783   1.318   2.886  0.0476  0.3495 -0.7062
  654TIP3P    H 1962   2.714   1.450   2.914 -0.7966  0.0356 -1.2898
  655TIP3P    O 1963   3.002   0.993   0.942 -0.1794  0.0530  0.1206
  655TIP3P    H 1964   2.979   1.075   0.985  1.1782 -0.1319  1.2123
  655TIP3P    H 1965   2.963   0.925   0.998 -0.3605 -0.1018 -0.1884
  656TIP3P    O 1966   1.163   0.028   1.720 -0.1014  0.1614  0.3032
  656TIP3P    H 1967   1.123   0.041   1.806 -0.7895  1.7367 -0.2344
  656TIP3P    H 1968   1.249  -0.008   1.739 -0.9832 -1.3947  1.5723
  657TIP3P    O 1969   0.606   2.323   3.039  0.1713  0.2383 -0.1261
  657TIP3P    H 1970   0.693   2.300   3.005 -0.2601 -0.5632 -0.6958
  657TIP3P    H 1971   0.561   2.240   3.048 -1.2037  0.7847 -1.6530
  658TIP3P    O 1972   2.119   0.909   2.682  0.3839  0.3168 -0.0792
  658TIP3P    H 1973   2.211   0.922   2.705  0.0357  1.0307  0.9410
  658TIP3P    H 1974   2.078   0.993   2.702 -0.6882 -0.3334  0.4848
  659TIP3P    O 1975   2.701   2.696   1.111 -0.1074 -0.5586  0.4288
  659TIP3P    H 1976   2.681   2.784   1.080  1.7663  0.9787  3.4370
  659TIP3P    H 1977   2.790   2.679   1.078 -0.0665 -0.9218  0.7291
  660TIP3P    O 1978   1.412   0.702   0.064  0.2936 -0.7261 -0.2528
  660TIP3P    H 1979   1.446   0.744  -0.015 -0.6699  1.4750  0.4797
  660TIP3P    H 1980   1.347   0.639   0.032 -0.0047  0.0634 -1.2215
  661TIP3P    O 1981   1.077   0.795   2.042 -0.4584 -0.5834  0.4759
  661TIP3P    H 1982   1.055   0.746   2.121  0.0470 -1.1629  0.2695
  661TIP3P    H 1983   1.147   0.743   2.001 -0.0968  0.1791  0.1172
  662TIP3P    O 1984   1.296   0.772   2.288 -0.4616  0.1937  0.2893
  662TIP3P    H 1985   1.225   0.709   2.300 -2.0803  1.9196  0.0304
  662TIP3P    H 1986   1.370   0.720   2.258 -1.7375 -1.5928  0.1837
  663TIP3P    O 1987   0.166   1.321   1.109  0.4600 -0.2482 -0.6329
  663TIP3P    H 1988   0.215   1.301   1.188 -0.8726  0.9302  0.5246
  663TIP3P    H 1989   0.173   1.416   1.099 -4.6914  0.5881  1.7971
  664TIP3P    O 1990   1.096   0.900   3.112 -0.5745  0.0823  0.3316
  664TIP3P    H 1991   1.022   0.842   3.094  0.5288 -1.5690  1.0437
  664TIP3P    H 1992   1.163   0.874   3.049  0.0893  0.2725  0.9476
  665TIP3P    O 1993   2.227   0.809   1.419 -0.2620 -0.3590 -0.0253
  665TIP3P    H 1994   2.222   0.895   1.377  1.0850 -0.1472  0.2205
  665TIP3P    H 1995   2.189   0.822   1.506 -0.8032 -0.2146 -0.2801
  666TIP3P    O 1996   1.722   0.856   0.068 -0.0722 -0.1203  0.3563
  666TIP3P    H 1997   1.662   0.898   0.130 -1.3758 -1.5023  0.0592
  666TIP3P    H 1998   1.666   0.833  -0.006  1.1499 -0.0147 -0.6051
  667TIP3P    O 1999   0.505   1.985   0.782 -0.1596  0.1516  0.6182
  667TIP3P    H 2000   0.510   2.081   0.780  0.1718  0.1177 -1.7848
  667TIP3P    H 2001   0.413   1.967   0.802 -0.5266  0.9825 -0.2764
  668TIP3P    O 2002   1.884   2.528   2.610 -0.2980  0.1579  0.5196
  668TIP3P    H 2003   1.844   2.524   2.523 -1.3192  0.7236  0.9608
  668TIP3P    H 2004   1.967   2.481   2.600 -0.6995 -0.3285 -0.5982
  669TIP3P    O 2005   2.791   2.759   1.904  0.4026  0.0748  0.3922
  669TIP3P    H 2006   2.762   2.811   1.828 -1.2257 -0.4065  0.6556
  669TIP3P    H 2007   2.754   2.672   1.888  3.3116 -1.1183 -0.1636
  670TIP3P    O 2008   0.326   0.549   1.700  0.1414 -0.0642  0.6066
  670TIP3P    H 2009   0.238   0.545   1.662 -0.4977  2.7654  1.6464
  670TIP3P    H 2010   0.380   0.589   1.631 -0.0808  1.0786  1.0868
  671TIP3P    O 2011   3.103   0.821   0.162 -0.3005  0.1023 -0.3122
  671TIP3P    H 2012   3.156   0.880   0.216  0.8044 -0.1820 -1.0667
  671TIP3P    H 2013   3.152   0.815   0.079 -0.5245 -1.6829 -0.3295
  672TIP3P    O 2014   2.810   0.983   3.044 -0.3513 -0.0605 -0.3948
  672TIP3P    H 2015   2.888   0.932   3.024  0.9599  2.1723 -1.1187
  672TIP3P    H 2016   2.804   0.980   3.140  0.9561  0.2284 -0.2928
  673TIP3P    O 2017   2.274   0.945   1.916 -0.0376  0.2718  0.3538
  673TIP3P    H 2018   2.199   0.892   1.889  0.6955 -0.9850  0.7682
  673TIP3P    H 2019   2.293   0.916   2.005  2.4649 -1.1679 -0.6077
  674TIP3P    O 2020   2.376   2.675   1.765  0.5744  0.1115  0.4247
  674TIP3P    H 2021   2.413   2.670   1.677  0.2662  1.1134  0.2300
  674TIP3P    H 2022   2.440   2.631   1.821  1.9361  1.5614  0.0489
  675TIP3P    O 2023   0.609   3.049   2.663 -0.5723  0.4415 -0.0598
  675TIP3P    H 2024   0.606   2.982   2.730  0.8207  2.2923  1.9079
  675TIP3P    H 2025   0.690   3.032   2.615  0.0002  0.9501  0.7134
  676TIP3P    O 2026   2.427   2.910   1.891 -0.1471  0.0048  0.2913
  676TIP3P    H 2027   2.406   2.831   1.842 -0.0817  0.7584 -0.9562
  676TIP3P    H 2028   2.488   2.881   1.959 -1.8576 -1.4185  1.2597
  677TIP3P    O 2029   0.311   2.430   2.979 -0.0471 -0.0936 -0.0283
  677TIP3P    H 2030   0.310   2.429   3.075  0.1232 -1.2732 -0.0411
  677TIP3P    H 2031   0.394   2.472   2.957  0.0761 -0.1450  0.3315
  678TIP3P    O 2032   1.575   2.359   1.165 -0.5772 -0.2637  0.3206
  678TIP3P    H 2033   1.494   2.341   1.116 -1.4098  1.8404  0.8675
  678TIP3P    H 2034   1.625   2.417   1.107  0.4596 -1.4005  0.0690
  679TIP3P    O 2035   1.431   2.346   2.844 -0.5509  0.0297  0.3783
  679TIP3P    H 2036   1.495   2.391   2.789  0.5104 -0.9680  0.7741
  679TIP3P    H 2037   1.372   2.415   2.873 -0.0237  0.8670 -0.4921
  680TIP3P    O 2038   0.132   3.069   2.778 -0.1373 -0.4375 -0.3022
  680TIP3P    H 2039   0.192   2.997   2.796 -0.0237 -0.2807 -0.0592
  680TIP3P    H 2040   0.121   3.113   2.863  0.1605  0.1154 -0.5492
  681TIP3P    O 2041   2.827   1.729   2.882  0.7474 -0.3873  0.2728
  681TIP3P    H 2042   2.869   1.741   2.967  0.7789 -0.7251  0.3052
  681TIP3P    H 2043   2.746   1.683   2.901  0.5886 -0.1590  0.1564
  682TIP3P    O 2044   0.962   3.011   2.434 -0.3808  0.3092 -0.3287
  682TIP3P    H 2045   1.008   2.930   2.455 -0.6874  0.7611  2.2908
  682TIP3P    H 2046   0.906   2.988   2.360 -1.0221 -2.1191  0.8266
  683TIP3P    O 2047   3.070   0.291   0.991  0.8944  0.7633 -0.3914
  683TIP3P    H 2048   3.035   0.204   1.008  1.2822  0.3302 -1.7585
  683TIP3P    H 2049   3.008   0.330   0.929  1.1557  1.1688 -0.4010
  684TIP3P    O 2050   2.655   3.077   2.824 -0.4148 -0.2577 -0.6914
  684TIP3P    H 2051   2.599   3.003   2.849  0.6878 -0.9259 -0.1483
  684TIP3P    H 2052   2.594   3.150   2.811 -1.2461 -0.4638  1.7444
  685TIP3P    O 2053   0.486   0.677   3.045 -0.4032 -0.1205  0.1511
  685TIP3P    H 2054   0.476   0.630   3.128 -0.0865 -0.2925  0.0954
  685TIP3P    H 2055   0.482   0.608   2.978 -0.0862 -0.0480  0.0580
  686TIP3P    O 2056   2.871   1.008   1.882  0.1359  0.1027 -0.2061
  686TIP3P    H 2057   2.965   1.017   1.866 -0.1595 -0.3306 -2.3620
  686TIP3P    H 2058   2.861   0.919   1.915  0.5967  0.5479  1.2006
  687TIP3P    O 2059   2.483   0.281   1.005 -0.2764  0.6049 -0.0362
  687TIP3P    H 2060   2.387   0.273   1.005 -0.2451  0.2000 -0.7165
  687TIP3P    H 2061   2.508   0.266   1.096 -0.8662  0.7001  0.1423
  688TIP3P    O 2062   2.241   1.508   1.911 -0.4258 -0.0303 -0.0464
  688TIP3P    H 2063   2.282   1.512   1.998 -1.0784 -0.7175  0.2997
  688TIP3P    H 2064   2.230   1.415   1.894 -2.0772  0.1484 -0.0142
  689TIP3P    O 2065   1.745   1.329   1.814 -0.2118  0.4647 -0.3218
  689TIP3P    H 2066   1.727   1.247   1.768  0.4706 -0.7408  1.5003
  689TIP3P    H 2067   1.660   1.357   1.847  0.0789 -1.5468  2.2989
  690TIP3P    O 2068   2.017   0.247   0.359 -0.1750 -0.0523  0.3032
  690TIP3P    H 2069   1.984   0.335   0.378  0.6725  0.4981 -0.7377
  690TIP3P    H 2070   2.046   0.251   0.268  0.2972 -1.2802  0.3893
  691TIP3P    O 2071   1.741   1.710   0.378 -0.0480 -0.3827 -0.0864
  691TIP3P    H 2072   1.690   1.639   0.338 -1.2904  1.0253 -1.0872
  691TIP3P    H 2073   1.683   1.786   0.372  0.5005  0.3012  2.7092
  692TIP3P    O 2074   1.707   0.600   1.193  0.4712  0.5183 -0.0334
  692TIP3P    H 2075   1.694   0.565   1.106  2.0034 -1.0545  0.3454
  692TIP3P    H 2076   1.678   0.531   1.252 -2.4913  2.3441  0.7398
  693TIP3P    O 2077   1.306   1.494   2.501  0.2243 -0.1542  0.4052
  693TIP3P    H 2078   1.223   1.541   2.507  0.3364 -0.1164  1.9614
  693TIP3P    H 2079   1.318   1.478   2.408 -0.2853  2.0412 -0.0585
  694TIP3P    O 2080   1.268   2.026   0.833 -0.1578  0.4231  0.1878
  694TIP3P    H 2081   1.324   1.966   0.882 -0.2038  1.9463  2.1453
  694TIP3P    H 2082   1.329   2.090   0.795 -0.1807 -0.3927 -1.2669
  695TIP3P    O 2083   2.088   2.986   2.186  0.0005 -0.1382 -0.1979
  695TIP3P    H 2084   2.126   2.989   2.098  3.3539 -0.0686  1.1781
  695TIP3P    H 2085   2.071   3.077   2.209  1.0414  0.0045  0.0130
  696TIP3P    O 2086   2.386   0.905   2.786  0.6289 -0.6949  0.0949
  696TIP3P    H 2087   2.442   0.935   2.858 -0.2520 -0.7970  0.8399
  696TIP3P    H 2088   2.409   0.962   2.712  0.6354  0.2810  0.8337
  697TIP3P    O 2089   2.086   0.829   1.666  0.3583  0.0771  0.4425
  697TIP3P    H 2090   2.012   0.890   1.663  0.3878  0.0603 -0.7393
  697TIP3P    H 2091   2.045   0.744   1.686 -0.4736 -0.6912 -4.0037
  698TIP3P    O 2092   2.201   0.258   0.129  0.3198 -0.2205 -0.3588
  698TIP3P    H 2093   2.227   0.349   0.145 -0.3677 -0.0091 -0.4261
  698TIP3P    H 2094   2.254   0.232   0.053  0.9916 -0.0899  0.0559
  699TIP3P    O 2095   0.090   0.855   0.772  0.1224  0.1522 -0.5852
  699TIP3P    H 2096   0.121   0.936   0.731 -1.2257  1.1388  0.3291
  699TIP3P    H 2097   0.011   0.880   0.819 -0.1082 -1.6282  0.0154
  700TIP3P    O 2098   1.390   1.466   2.251 -0.2921  0.1456 -0.5228
  700TIP3P    H 2099   1.484   1.448   2.252 -0.6264 -1.7412  1.8683
  700TIP3P    H 2100   1.354   1.401   2.191 -0.0409  1.1918 -1.8309
  701TIP3P    O 2101   2.625   0.821   2.059  0.0028 -0.2607 -0.3795
  701TIP3P    H 2102   2.572   0.747   2.089 -0.8546  0.2127 -0.7228
  701TIP3P    H 2103   2.593   0.840   1.971  0.0974  0.6355 -0.2273
  702TIP3P    O 2104   0.758   1.824   2.634  0.0443  0.1573 -1.2358
  702TIP3P    H 2105   0.709   1.779   2.565  1.0668 -0.8881 -1.2963
  702TIP3P    H 2106   0.839   1.774   2.643  0.9951  1.6928 -0.9537
  703TIP3P    O 2107   3.111   0.132   2.625 -0.2779 -0.2223  0.1715
  703TIP3P    H 2108   3.172   0.200   2.597 -2.5353  2.3287  1.2187
  703TIP3P    H 2109   3.163   0.074   2.680  1.2770  1.7488  0.8434
  704TIP3P    O 2110   0.409   0.709   0.463 -0.4710 -0.5136  0.0765
  704TIP3P    H 2111   0.361   0.627   0.454 -0.2151 -0.7297  0.6729
  704TIP3P    H 2112   0.372   0.766   0.395 -1.2098 -0.8473  0.1889
  705TIP3P    O 2113   2.524   0.150   0.693  0.1209  0.5512 -0.6663
  705TIP3P    H 2114   2.568   0.228   0.660 -0.0806  0.7646 -0.4342
  705TIP3P    H 2115   2.498   0.173   0.783  2.7241 -0.8306  0.4907
  706TIP3P    O 2116   2.198   0.261   1.055 -0.4314 -0.1967  0.6430
  706TIP3P    H 2117   2.137   0.327   1.025  1.3147  0.9638 -0.4605
  706TIP3P    H 2118   2.191   0.263   1.151 -0.7559  1.2293  0.5966
  707TIP3P    O 2119   2.544   1.908   2.975 -0.6478 -0.4546 -0.5944
  707TIP3P    H 2120   2.516   1.821   3.003 -0.6313 -0.1867  0.2713
  707TIP3P    H 2121   2.632   1.918   3.012 -0.1889 -0.5145 -1.6506
  708TIP3P    O 2122   2.781   1.942   3.087  0.9704 -0.2449 -0.4117
  708TIP3P    H 2123   2.801   1.914   3.176  0.0162 -0.5825 -0.2929
  708TIP3P    H 2124   2.837   2.018   3.072  1.0948 -0.1551  0.4927
  709TIP3P    O 2125   3.100   2.063   1.720 -0.1136 -0.3660 -0.8775
  709TIP3P    H 2126   3.157   2.008   1.773 -0.4373 -1.6298 -1.8033
  709TIP3P    H 2127   3.016   2.065   1.767  0.6969  1.6377  0.5748
  710TIP3P    O 2128   0.859   2.081   0.856  0.3578  0.5177  0.0184
  710TIP3P    H 2129   0.842   2.164   0.811 -1.3381 -0.4900 -1.2520
  710TIP3P    H 2130   0.813   2.090   0.940 -0.4748  0.5811 -0.4346
  711TIP3P    O 2131   1.872   2.487   2.890 -0.1743  0.0167  0.0268
  711TIP3P    H 2132   1.824   2.527   2.817  0.2381 -0.1826 -0.3553
  711TIP3P    H 2133   1.853   2.394   2.882 -2.4448  0.2653  1.8699
  712TIP3P    O 2134   0.960   2.513   2.411 -0.2823  0.4063  0.1388
  712TIP3P    H 2135   0.945   2.551   2.324  2.3264  2.2581  0.4238
  712TIP3P    H 2136   0.902   2.437   2.415 -1.3676  1.0340 -2.7313
  713TIP3P    O 2137   1.041   0.912   0.643  0.2137 -0.2785 -0.4686
  713TIP3P    H 2138   0.970   0.873   0.695 -0.1990  0.2701 -0.6119
  713TIP3P    H 2139   1.073   0.985   0.697  0.2531 -0.1411 -0.6788
  714TIP3P    O 2140   3.037   0.679   1.747 -0.1043 -0.3874  0.4619
  714TIP3P    H 2141   3.061   0.765   1.714  0.4499 -0.4672  0.6377
  714TIP3P    H 2142   2.958   0.655   1.699  0.7862 -0.5829 -0.9356
  715TIP3P    O 2143   1.102   2.559   2.773  0.3323  0.3317 -0.1743
  715TIP3P    H 2144   1.073   2.521   2.856 -1.1321  0.8958 -0.4099
  715TIP3P    H 2145   1.123   2.650   2.794 -0.2718  0.5403 -0.4602
  716TIP3P    O 2146   1.377   1.906   2.404  0.3963  0.6583  0.2436
  716TIP3P    H 2147   1.290   1.946   2.408  0.4249  0.7568 -0.0459
  716TIP3P    H 2148   1.433   1.965   2.455  0.0397 -0.1059  1.5439
  717TIP3P    O 2149   3.033   2.937   2.954  0.0423 -0.1393 -0.3879
  717TIP3P    H 2150   3.118   2.953   2.996  0.5914 -1.5394 -0.9554
  717TIP3P    H 2151   2.997   3.025   2.940  0.7732  0.4101  1.1251
  718TIP3P    O 2152   2.738   2.933   0.234  0.0463  0.4221  0.6026
  718TIP3P    H 2153   2.691   2.989   0.296  0.1523  1.0712  0.1070
  718TIP3P    H 2154   2.697   2.952   0.150 -0.3710 -0.7498  0.5291
  719TIP3P    O 2155   0.842   1.130   3.090  0.0765  0.1620  0.0226
  719TIP3P    H 2156   0.921   1.152   3.042  0.0524  1.4341  0.5560
  719TIP3P    H 2157   0.774   1.185   3.051 -0.3447 -0.2100  0.2239
  720TIP3P    O 2158   1.184   0.718   1.003 -0.7792 -0.6891  0.5788
  720TIP3P    H 2159   1.255   0.681   0.950  0.2704  3.6933 -1.3572
  720TIP3P    H 2160   1.218   0.719   1.092  0.3127 -1.6026  0.1830
  721TIP3P    O 2161   0.482   0.930   1.558 -0.3581 -0.2400 -0.0579
  721TIP3P    H 2162   0.441   0.931   1.645 -1.6712 -0.6181 -0.6653
  721TIP3P    H 2163   0.413   0.961   1.499  0.0801 -1.3196 -1.1569
  722TIP3P    O 2164   0.166   1.855   1.362  0.1709  0.1811  0.1382
  722TIP3P    H 2165   0.117   1.915   1.419 -1.9871 -2.9787  1.7154
  722TIP3P    H 2166   0.240   1.827   1.417  0.5445  0.4860 -0.2046
  723TIP3P    O 2167   1.648   0.024   1.161  0.1574  0.3400  0.0527
  723TIP3P    H 2168   1.656  -0.066   1.193 -0.0923  1.0585  2.2105
  723TIP3P    H 2169   1.675   0.079   1.235  0.3544  2.0619 -1.2369
  724TIP3P    O 2170   0.703   0.834   2.182 -0.2817  0.0143 -0.6498
  724TIP3P    H 2171   0.674   0.925   2.188  1.7564  0.8462 -2.5365
  724TIP3P    H 2172   0.644   0.795   2.117  0.3630  0.6700 -1.6512
  725TIP3P    O 2173   1.227   0.312   1.608  0.3088 -0.3609 -0.1110
  725TIP3P    H 2174   1.225   0.220   1.635 -1.5110 -0.4073 -0.3575
  725TIP3P    H 2175   1.152   0.322   1.550 -0.8124  1.7977  1.6253
  726TIP3P    O 2176   1.966   0.592   1.747 -0.4063  0.1281 -0.1790
  726TIP3P    H 2177   1.981   0.498   1.744 -2.1312 -0.2729  2.4537
  726TIP3P    H 2178   1.873   0.602   1.727  0.2178  1.5104 -2.7096
  727TIP3P    O 2179   1.067   2.255   0.952 -0.0350 -0.0062  0.1844
  727TIP3P    H 2180   1.096   2.171   0.917  0.5651 -1.1506  3.3099
  727TIP3P    H 2181   1.116   2.320   0.901  2.0029 -1.6553 -0.0451
  728TIP3P    O 2182   1.832   2.791   1.313  0.2084  0.0863 -0.7136
  728TIP3P    H 2183   1.846   2.747   1.397  0.0330  0.8179 -0.2874
  728TIP3P    H 2184   1.840   2.884   1.334 -0.8451  0.3169 -1.3081
  729TIP3P    O 2185   2.154   1.562   2.237  0.6975 -0.3472  0.0249
  729TIP3P    H 2186   2.076   1.599   2.197 -0.8815 -1.4564  1.9568
  729TIP3P    H 2187   2.214   1.636   2.245  0.2245  0.3236 -2.3303
  730TIP3P    O 2188   1.237   1.570   1.655 -0.0327  0.4849 -1.1378
  730TIP3P    H 2189   1.181   1.592   1.581  0.8956  0.4269 -1.8582
  730TIP3P    H 2190   1.248   1.652   1.702  0.0247  0.6864 -1.5046
  731TIP3P    O 2191   0.129   2.936   0.294 -0.1614  0.4067  0.4736
  731TIP3P    H 2192   0.058   2.946   0.232  0.5188  0.6140 -0.2840
  731TIP3P    H 2193   0.121   2.846   0.326 -0.8843  0.4985  0.5542
  732TIP3P    O 2194   3.050   0.650   1.346  0.3294  0.5924  0.0258
  732TIP3P    H 2195   2.987   0.589   1.307 -0.7910  1.7060  0.0853
  732TIP3P    H 2196   3.013   0.672   1.431  1.5176  0.1420  0.6637
  733TIP3P    O 2197   3.037   0.477   2.105  0.1877 -0.2754 -0.2431
  733TIP3P    H 2198   2.948   0.466   2.072 -0.2681 -2.5340  1.5372
  733TIP3P    H 2199   3.087   0.407   2.063  0.3889 -0.9314  1.0264
  734TIP3P    O 2200   0.224   2.554   0.917  0.0203  0.0559  0.1543
  734TIP3P    H 2201   0.243   2.600   0.999  0.6969 -0.0554  0.0621
  734TIP3P    H 2202   0.178   2.619   0.863 -0.0722  0.2522  0.4638
  735TIP3P    O 2203   2.444   0.201   1.865 -0.3974  0.2975  0.2571
  735TIP3P    H 2204   2.504   0.149   1.919 -0.1410 -1.3379 -1.5558
  735TIP3P    H 2205   2.357   0.166   1.885 -0.4224  0.5097  0.5172
  736TIP3P    O 2206   1.842   1.559   2.032 -0.5473  0.0647 -0.1337
  736TIP3P    H 2207   1.807   1.579   1.945  0.6329 -1.3785 -0.9644
  736TIP3P    H 2208   1.845   1.643   2.077 -0.8658  0.8734 -1.5994
  737TIP3P    O 2209   0.490   3.000   2.316 -0.3555  0.3755  0.0049
  737TIP3P    H 2210   0.436   3.010   2.238 -0.6909  0.8314  0.2945
  737TIP3P    H 2211   0.430   3.013   2.389  0.1193  0.7468  0.3319
  738TIP3P    O 2212   2.362   1.953   1.486 -0.2387 -0.0242  0.6936
  738TIP3P    H 2213   2.269   1.952   1.464  0.2644  2.2737 -1.9029
  738TIP3P    H 2214   2.402   2.003   1.415  2.8761 -0.3194  2.1740
  739TIP3P    O 2215   0.982   1.015   1.911 -0.2209  0.6059  0.1242
  739TIP3P    H 2216   0.897   1.026   1.955 -0.0337 -2.3000  1.3566
  739TIP3P    H 2217   1.018   0.935   1.949  2.1327  0.6225 -1.9474
  740TIP3P    O 2218   0.245   0.069   1.469 -0.2996  0.2758  0.6271
  740TIP3P    H 2219   0.257   0.150   1.420 -0.0719  0.5305  1.0979
  740TIP3P    H 2220   0.200   0.095   1.550  1.0422  0.1562  1.4277
  741TIP3P    O 2221   1.712   0.624   1.678 -0.3648 -0.4162 -0.1216
  741TIP3P    H 2222   1.648   0.690   1.652 -1.7057 -1.1200  1.2593
  741TIP3P    H 2223   1.682   0.543   1.636  0.1918 -0.5468 -0.2765
  742TIP3P    O 2224   0.905   0.903   1.639  0.2614 -0.1830 -0.2519
  742TIP3P    H 2225   0.873   0.965   1.574  1.3085 -0.2960 -0.8927
  742TIP3P    H 2226   0.925   0.957   1.716 -0.4742  0.0216 -0.1969
  743TIP3P    O 2227   0.515   2.612   1.838  0.3123 -0.3220  0.4106
  743TIP3P    H 2228   0.480   2.543   1.895  0.4959 -1.0757 -0.3721
  743TIP3P    H 2229   0.598   2.576   1.805  1.1254  0.8581  1.1167
  744TIP3P    O 2230   2.554   1.105   3.087 -0.0337 -0.0644 -0.2412
  744TIP3P    H 2231   2.633   1.059   3.059 -1.0746 -1.2163 -1.3411
  744TIP3P    H 2232   2.528   1.061   3.168  0.7517  0.6794  0.4238
  745TIP3P    O 2233   2.187   2.519   2.659  0.0608 -0.1601 -0.0278
  745TIP3P    H 2234   2.210   2.611   2.650  1.3735 -0.3858  0.8998
  745TIP3P    H 2235   2.255   2.473   2.609 -1.1765 -0.5866 -1.3702
  746TIP3P    O 2236   2.514   1.249   0.862  0.1355  0.0364  0.3832
  746TIP3P    H 2237   2.556   1.206   0.788  0.8243 -0.2481  0.9333
  746TIP3P    H 2238   2.431   1.202   0.874 -0.1536  0.3276 -0.4369
  747TIP3P    O 2239   1.217   0.253   2.959 -0.9710 -0.4397 -0.2578
  747TIP3P    H 2240   1.268   0.172   2.956 -0.5379 -0.1537 -0.8118
  747TIP3P    H 2241   1.216   0.284   2.868  0.0310  0.8840  0.1633
  748TIP3P    O 2242   0.961   0.883   0.378 -0.2880  0.2702  0.2001
  748TIP3P    H 2243   0.935   0.964   0.334  0.2939 -0.1420 -0.9172
  748TIP3P    H 2244   0.879   0.839   0.399 -0.5693  0.4006 -0.6219
  749TIP3P    O 2245   0.996   1.562   0.859 -0.4970 -0.0207 -0.3387
  749TIP3P    H 2246   0.980   1.656   0.854  1.4229  0.3165 -0.3481
  749TIP3P    H 2247   1.088   1.552   0.836  0.0169 -1.6441  2.2228
  750TIP3P    O 2248   1.126   0.320   1.870 -0.0348  0.0234  0.1177
  750TIP3P    H 2249   1.107   0.407   1.904  1.1113  0.3742 -0.1378
  750TIP3P    H 2250   1.165   0.335   1.784 -0.7692 -0.7836 -0.3774
  751TIP3P    O 2251   0.854   0.984   2.664 -0.1966 -0.2526 -0.4096
  751TIP3P    H 2252   0.930   0.927   2.649 -0.1710 -0.1722 -0.5878
  751TIP3P    H 2253   0.879   1.037   2.740 -0.4307 -0.8435  0.0845
  752TIP3P    O 2254   0.008   0.912   1.617  0.6691  0.6103 -0.0162
  752TIP3P    H 2255   0.034   0.957   1.697 -4.7425 -2.0477  3.5755
  752TIP3P    H 2256  -0.066   0.963   1.584 -2.0646 -2.3568  1.1419
  753TIP3P    O 2257   0.600   0.832   1.075 -0.2209  0.2743 -0.0368
  753TIP3P    H 2258   0.506   0.827   1.056 -0.4346 -0.5265  1.1762
  753TIP3P    H 2259   0.623   0.744   1.105  0.6050  0.8378  1.0350
  754TIP3P    O 2260   1.581   0.298   1.324  0.6471 -0.4280 -0.0546
  754TIP3P    H 2261   1.549   0.208   1.336  0.7076 -0.7281 -1.9972
  754TIP3P    H 2262   1.656   0.289   1.264  0.7204  0.8989 -0.1765
  755TIP3P    O 2263   2.385   2.345   2.611  0.2935 -0.0568  0.2912
  755TIP3P    H 2264   2.462   2.290   2.600 -0.3636 -1.0559  0.6179
  755TIP3P    H 2265   2.324   2.292   2.662 -0.5977  0.7321  0.0701
  756TIP3P    O 2266   0.618   0.012   2.043  0.2598 -0.5653  0.5812
  756TIP3P    H 2267   0.538   0.064   2.040  0.6860  0.0100 -2.7686
  756TIP3P    H 2268   0.591  -0.075   2.012  0.8824 -0.3758 -0.5385
  757TIP3P    O 2269   2.156   2.481   0.575  0.6321 -0.5226  0.3479
  757TIP3P    H 2270   2.228   2.425   0.547 -0.2357 -0.6332 -1.7345
  757TIP3P    H 2271   2.088   2.420   0.604 -0.3028 -0.6092 -1.8961
  758TIP3P    O 2272   1.440   0.081   2.912 -0.3296 -0.0723  0.3626
  758TIP3P    H 2273   1.474   0.163   2.949 -1.3312  0.7321 -0.4487
  758TIP3P    H 2274   1.497   0.013   2.947  0.8556  1.0326  0.6098
  759TIP3P    O 2275   0.276   2.862   1.083 -0.0453 -0.0020 -0.3102
  759TIP3P    H 2276   0.316   2.880   0.998  1.9107  0.2110  0.6399
  759TIP3P    H 2277   0.349   2.849   1.142 -1.3423 -4.7876  0.4294
  760TIP3P    O 2278   1.415   2.822   1.553 -0.0405  0.3544  0.1648
  760TIP3P    H 2279   1.322   2.844   1.543  0.5319  3.0557  0.4548
  760TIP3P    H 2280   1.433   2.836   1.646  0.0713 -2.7097  0.6542
  761TIP3P    O 2281   1.815   2.547   0.679 -0.4736  0.2505 -0.0347
  761TIP3P    H 2282   1.774   2.549   0.592  0.0418 -1.3241 -0.3309
  761TIP3P    H 2283   1.843   2.456   0.690  1.8840  1.0311  0.6380
  762TIP3P    O 2284   0.174   0.681   2.732  0.6657 -0.6368  0.6525
  762TIP3P    H 2285   0.194   0.681   2.639  1.2422 -2.1349  0.7628
  762TIP3P    H 2286   0.228   0.751   2.768  1.3691 -0.8653  0.0547
  763TIP3P    O 2287   1.691   2.087   2.550  0.5111 -0.4244 -0.0404
  763TIP3P    H 2288   1.606   2.119   2.583 -0.9077 -1.1590 -2.8928
  763TIP3P    H 2289   1.695   1.996   2.579 -0.2693 -0.7638 -0.9603
  764TIP3P    O 2290   1.044   1.259   1.541  0.3478 -0.2205 -0.5227
  764TIP3P    H 2291   1.105   1.235   1.610  0.6774 -1.2080 -1.1547
  764TIP3P    H 2292   0.958   1.259   1.583  0.4747 -1.4454 -0.2745
  765TIP3P    O 2293   0.641   2.569   2.365  0.0152  0.0196 -0.1851
  765TIP3P    H 2294   0.619   2.647   2.313 -0.5237  0.1081  0.1789
  765TIP3P    H 2295   0.557   2.534   2.393  0.3119  0.1476  0.8958
  766TIP3P    O 2296   1.837   0.065   0.961  0.1757 -0.1007  0.2761
  766TIP3P    H 2297   1.771   0.062   1.030 -0.0989 -0.5601 -0.0040
  766TIP3P    H 2298   1.905   0.003   0.990 -0.7357 -1.5583 -0.6712
  767TIP3P    O 2299   2.066   0.111   2.325 -0.5606 -0.0468  0.1489
  767TIP3P    H 2300   2.014   0.155   2.393  0.9971  0.7948  0.8216
  767TIP3P    H 2301   2.109   0.039   2.371 -1.0658 -0.6953 -0.3876
  768TIP3P    O 2302   0.474   1.606   1.751 -0.0108 -0.5335 -0.1027
  768TIP3P    H 2303   0.487   1.700   1.735  1.9686 -0.9361 -0.9230
  768TIP3P    H 2304   0.459   1.600   1.845  0.1402  0.5638 -0.0003
  769TIP3P    O 2305   0.551   3.034   0.414  0.1374  0.2746 -0.0828
  769TIP3P    H 2306   0.581   3.013   0.502 -1.5138 -0.6510  0.2803
  769TIP3P    H 2307   0.482   3.099   0.427 -0.2580 -0.0202 -0.6801
  770TIP3P    O 2308   2.310   0.621   2.787  0.1443  0.0267  0.0556
  770TIP3P    H 2309   2.306   0.715   2.774 -0.2705 -0.0320 -0.2659
  770TIP3P    H 2310   2.318   0.585   2.699 -0.6577 -0.2812  0.1028
  771TIP3P    O 2311   1.971   0.738   0.529 -0.5561 -0.3289  0.1115
  771TIP3P    H 2312   2.001   0.828   0.517 -0.6412 -0.3573 -0.3207
  771TIP3P    H 2313   2.026   0.704   0.599  0.5629 -0.4415 -0.8071
  772TIP3P    O 2314   3.083   0.769   0.514 -0.3668 -0.1621  0.1796
  772TIP3P    H 2315   3.033   0.690   0.494  0.3401 -0.7281  0.6508
  772TIP3P    H 2316   3.091   0.770   0.609 -1.4792  1.1687  0.2844
  773TIP3P    O 2317   1.760   2.459   2.357  0.4153 -0.1959  0.0836
  773TIP3P    H 2318   1.768   2.522   2.285 -1.6678  1.6454  1.3836
  773TIP3P    H 2319   1.668   2.432   2.354  0.7334 -1.4309  0.9892
  774TIP3P    O 2320   1.867   0.097   0.084 -0.1705 -0.6774 -0.6230
  774TIP3P    H 2321   1.829   0.102   0.172  0.9234  0.7686 -0.1955
  774TIP3P    H 2322   1.841   0.179   0.042  2.0043  0.1433 -0.4716
  775TIP3P    O 2323   0.290   0.014   0.312  0.3985 -0.8221  0.8532
  775TIP3P    H 2324   0.321   0.064   0.236 -0.8745 -0.1571  0.7725
  775TIP3P    H 2325   0.244  -0.061   0.274 -1.0719  0.0195  0.9563
  776TIP3P    O 2326   1.587   1.256   1.036  0.7691 -0.0458 -0.3062
  776TIP3P    H 2327   1.657   1.315   1.010  0.0850  1.5323  1.2899
  776TIP3P    H 2328   1.579   1.269   1.130  0.9217 -3.0759  0.1490
  777TIP3P    O 2329   2.194   1.014   0.108 -0.4299  0.1947  0.7891
  777TIP3P    H 2330   2.163   1.103   0.125 -1.5554  0.0624 -0.4359
  777TIP3P    H 2331   2.182   1.002   0.014  0.2612 -1.0512  0.8434
  778TIP3P    O 2332   0.818   0.148   2.532 -0.7152 -0.3717  0.9105
  778TIP3P    H 2333   0.763   0.103   2.467 -1.3579  0.8345  0.5961
  778TIP3P    H 2334   0.881   0.082   2.560  0.2914 -0.6250 -1.7665
  779TIP3P    O 2335   1.941   1.027   2.522 -0.3976 -0.8808  0.2333
  779TIP3P    H 2336   1.870   1.000   2.581  0.3043  1.6839  2.3652
  779TIP3P    H 2337   2.019   0.986   2.558  0.0788  0.9205  1.3220
  780TIP3P    O 2338   0.584   2.188   1.372  0.0533 -0.4769  0.0790
  780TIP3P    H 2339   0.598   2.093   1.379  1.3452 -0.0997  3.0873
  780TIP3P    H 2340   0.670   2.223   1.349 -0.0832  0.1176  0.4748
  781TIP3P    O 2341   1.442   0.438   2.119 -0.0983 -0.1268 -0.0412
  781TIP3P    H 2342   1.439   0.381   2.195 -0.1350  0.1978  0.1995
  781TIP3P    H 2343   1.479   0.383   2.049  1.6012  0.0963  0.6539
  782TIP3P    O 2344   0.554   0.913   2.976 -0.0792  0.0043 -0.3418
  782TIP3P    H 2345   0.494   0.970   3.024  0.1451  0.1184 -0.1961
  782TIP3P    H 2346   0.519   0.825   2.988 -0.4299  0.1105 -0.5696
  783TIP3P    O 2347   2.498   2.619   2.734  0.1306 -0.1985  0.0745
  783TIP3P    H 2348   2.500   2.526   2.709 -0.4058  0.1798 -1.4746
  783TIP3P    H 2349   2.574   2.657   2.691  0.8092 -0.0697  1.3776
  784TIP3P    O 2350   0.909   1.521   1.157  0.0449 -0.4962  0.2320
  784TIP3P    H 2351   0.939   1.492   1.070  1.5573  0.3519  0.4463
  784TIP3P    H 2352   0.855   1.599   1.139 -2.5205 -2.3209 -0.1983
  785TIP3P    O 2353   2.656   0.557   0.981  0.1052 -0.3634 -0.5416
  785TIP3P    H 2354   2.653   0.582   1.073 -0.7685 -1.9321 -0.1255
  785TIP3P    H 2355   2.660   0.461   0.982 -0.9882 -0.4464 -2.1400
  786TIP3P    O 2356   0.609   0.748   0.212 -0.2713 -0.0481 -0.3912
  786TIP3P    H 2357   0.537   0.802   0.180  0.6975  2.0573  0.8300
  786TIP3P    H 2358   0.685   0.778   0.161  0.5662  0.8067  1.3232
  787TIP3P    O 2359   2.576   0.873   1.537  0.0542 -0.1357  0.2679
  787TIP3P    H 2360   2.525   0.907   1.463  0.6185  1.4844  0.6197
  787TIP3P    H 2361   2.666   0.871   1.505  0.3922  1.1786  1.1143
  788TIP3P    O 2362   1.108   3.098   2.659 -0.0199  0.0922  0.4352
  788TIP3P    H 2363   1.057   3.092   2.740 -1.2487  1.6591 -0.2030
  788TIP3P    H 2364   1.056   3.052   2.594 -0.1590  0.8585  0.0033
  789TIP3P    O 2365   2.344   0.468   1.848 -0.0252  0.7930 -0.2792
  789TIP3P    H 2366   2.384   0.386   1.878 -0.7769  1.1365  1.6798
  789TIP3P    H 2367   2.371   0.475   1.756  0.1824 -1.5737 -0.4268
  790TIP3P    O 2368   1.879   1.014   3.026 -0.5113  0.2317  0.0740
  790TIP3P    H 2369   1.831   1.097   3.024 -0.2837  0.4915  3.1811
  790TIP3P    H 2370   1.836   0.964   3.095  0.9521 -1.2370 -0.0614
  791TIP3P    O 2371   0.908   2.867   0.715  0.1039  0.3032 -0.3004
  791TIP3P    H 2372   0.999   2.854   0.689  0.9958  0.9565  2.3408
  791TIP3P    H 2373   0.913   2.902   0.804 -2.7656 -0.9522  0.4226
  792TIP3P    O 2374   0.225   1.660   2.486 -0.2798  0.0760 -0.9148
  792TIP3P    H 2375   0.235   1.600   2.560 -1.8065 -1.1847 -1.6905
  792TIP3P    H 2376   0.239   1.747   2.523 -0.8170 -0.5540  0.8146
  793TIP3P    O 2377   1.348   0.479   2.693  0.0451 -0.1309  0.5049
  793TIP3P    H 2378   1.303   0.482   2.609 -1.2888 -0.6517  1.1869
  793TIP3P    H 2379   1.329   0.564   2.733 -2.1517 -1.1378  1.6950
  794TIP3P    O 2380   1.877   2.955   1.987 -0.3101  0.1412 -0.4501
  794TIP3P    H 2381   1.834   3.025   2.036 -0.9183  0.2766 -1.1735
  794TIP3P    H 2382   1.844   2.874   2.027  0.7782  0.2553  0.7194
  795TIP3P    O 2383   1.858   1.004   1.852  0.4619  0.2225  0.2413
  795TIP3P    H 2384   1.929   0.993   1.916  1.7873  1.9895 -0.8617
  795TIP3P    H 2385   1.783   1.032   1.905  0.6933 -1.2241  1.3726
  796TIP3P    O 2386   0.064   0.187   1.630  0.3547  0.6679 -0.5638
  796TIP3P    H 2387   0.110   0.255   1.678  1.8112 -0.4932 -0.2762
  796TIP3P    H 2388  -0.017   0.228   1.601 -0.7668  1.3018  3.1991
  797TIP3P    O 2389   1.851   0.178   1.269  0.4265 -0.0554 -0.3656
  797TIP3P    H 2390   1.915   0.108   1.251 -2.2134 -1.5909 -4.4387
  797TIP3P    H 2391   1.896   0.258   1.243  1.0851 -1.0060 -2.2323
  798TIP3P    O 2392   0.106   2.964   2.263  0.2428 -0.3599  0.2917
  798TIP3P    H 2393   0.039   2.931   2.324 -0.0479 -0.8305 -0.2690
  798TIP3P    H 2394   0.113   3.057   2.284 -0.1436 -0.4327  0.7765
  799TIP3P    O 2395   0.109   1.592   1.985  0.3245 -0.3303 -0.2752
  799TIP3P    H 2396   0.045   1.524   2.005  0.4662 -0.3083  0.2517
  799TIP3P    H 2397   0.177   1.581   2.051 -0.2920  1.1584  0.6382
  800TIP3P    O 2398   0.265   1.036   3.053 -0.2802  0.3850 -0.2317
  800TIP3P    H 2399   0.313   1.103   3.003  0.8384  0.2311  0.6142
  800TIP3P    H 2400   0.186   1.081   3.083 -0.1281  0.9710 -0.6981
  801TIP3P    O 2401   0.428   2.083   3.090  0.0092  0.3927 -0.2758
  801TIP3P    H 2402   0.433   1.999   3.135  0.4037  0.4076 -0.2889
  801TIP3P    H 2403   0.382   2.064   3.008  1.1473 -0.0422 -0.8235
  802TIP3P    O 2404   0.064   1.142   2.368 -0.4974  0.4134 -0.3703
  802TIP3P    H 2405   0.107   1.057   2.373 -2.1697 -0.4396 -0.0439
  802TIP3P    H 2406   0.011   1.138   2.289  0.3022  1.6046 -0.9895
  803TIP3P    O 2407   0.437   0.286   1.071  0.0010  0.4799 -0.5025
  803TIP3P    H 2408   0.507   0.340   1.033  0.4773 -0.3670 -0.8458
  803TIP3P    H 2409   0.435   0.208   1.017  0.6442 -0.7256  1.1678
  804TIP3P    O 2410   0.097   2.465   1.191 -0.1972  0.0851 -0.4711
  804TIP3P    H 2411   0.190   2.483   1.200 -0.1373  0.0543 -1.0369
  804TIP3P    H 2412   0.086   2.374   1.220  0.0105 -0.0499 -0.8267
  805TIP3P    O 2413   2.580   2.173   1.612 -0.1616  0.1896  0.2704
  805TIP3P    H 2414   2.574   2.144   1.521 -0.5170  0.3675  0.2348
  805TIP3P    H 2415   2.646   2.243   1.611 -0.8186  0.8159 -0.0127
  806TIP3P    O 2416   2.001   0.448   1.008 -0.6838 -0.2478 -0.1617
  806TIP3P    H 2417   2.030   0.502   1.081 -0.2062  1.0041 -1.2393
  806TIP3P    H 2418   1.912   0.479   0.989 -0.6763 -0.3224 -0.3259
  807TIP3P    O 2419   2.211   2.788   2.370  0.5389 -0.6075 -0.4688
  807TIP3P    H 2420   2.181   2.855   2.308  0.8005 -1.0159 -1.0455
  807TIP3P    H 2421   2.159   2.711   2.349 -0.1716 -0.4228  0.5827
  808TIP3P    O 2422   2.833   1.579   0.306 -0.3797 -0.1370 -0.1999
  808TIP3P    H 2423   2.824   1.487   0.330 -2.1440 -0.1732 -0.8859
  808TIP3P    H 2424   2.787   1.627   0.375  0.5783  0.2455  0.1834
  809TIP3P    O 2425   0.701   1.078   1.940  0.5846  0.1804  0.3530
  809TIP3P    H 2426   0.656   1.159   1.962 -0.7483 -0.2174 -0.8416
  809TIP3P    H 2427   0.632   1.012   1.937  1.3776 -0.6299 -0.5273
  810TIP3P    O 2428   2.278   0.897   2.214 -0.3472  0.0860  0.5369
  810TIP3P    H 2429   2.320   0.930   2.293 -0.1719  0.8638  0.1331
  810TIP3P    H 2430   2.200   0.952   2.204 -0.5395 -0.2189  0.3474
  811TIP3P    O 2431   0.127   2.326   2.283  0.5189  0.1447  0.5675
  811TIP3P    H 2432   0.068   2.259   2.317  0.3602 -0.2211 -0.4123
  811TIP3P    H 2433   0.179   2.353   2.359  0.5472 -1.0445  0.9831
  812TIP3P    O 2434   2.422   1.279   0.404 -0.4238  0.4880 -0.3432
  812TIP3P    H 2435   2.340   1.256   0.448  0.2145 -0.1370  0.5258
  812TIP3P    H 2436   2.473   1.198   0.404  0.0655  0.7895 -1.1798
  813TIP3P    O 2437   1.294   0.847   1.574 -0.4756  0.0213 -0.1366
  813TIP3P    H 2438   1.248   0.902   1.512 -0.1481 -0.1281 -0.5165
  813TIP3P    H 2439   1.251   0.761   1.568 -0.5086  0.0340 -0.0845
  814TIP3P    O 2440   1.792   2.695   2.113  0.2790 -0.4111 -0.1440
  814TIP3P    H 2441   1.736   2.656   2.046  0.7435 -0.6306 -0.4121
  814TIP3P    H 2442   1.863   2.631   2.124  0.4677 -0.1449  0.1958
  815TIP3P    O 2443   2.675   0.716   2.825  0.1151  0.5481 -0.0647
  815TIP3P    H 2444   2.740   0.786   2.820  0.9943 -0.3513 -1.4136
  815TIP3P    H 2445   2.719   0.639   2.792 -1.7482 -0.0077 -1.3320
  816TIP3P    O 2446   1.791   1.117   0.617  0.2405 -0.5048 -0.3303
  816TIP3P    H 2447   1.765   1.186   0.679 -0.7613 -0.7298 -0.4882
  816TIP3P    H 2448   1.824   1.165   0.541  0.5185 -0.2103 -0.0272
  817TIP3P    O 2449   2.759   0.135   0.287  0.2272  0.0319 -0.5822
  817TIP3P    H 2450   2.785   0.217   0.329  1.4858  0.0314 -1.3450
  817TIP3P    H 2451   2.739   0.160   0.197 -0.6854 -0.2796 -0.4688
  818TIP3P    O 2452   2.219   1.099   1.679  0.1612 -0.0418 -0.0829
  818TIP3P    H 2453   2.253   1.130   1.763  1.8157  2.0994 -1.4833
  818TIP3P    H 2454   2.191   1.009   1.696  0.5344  0.3305  2.7325
  819TIP3P    O 2455   2.138   2.223   1.766  0.1692  0.4853  0.1192
  819TIP3P    H 2456   2.109   2.165   1.836  0.7994  1.5734  1.3120
  819TIP3P    H 2457   2.222   2.186   1.738 -1.2999 -1.4605 -1.9025
  820TIP3P    O 2458   0.644   0.730   2.442  0.2302 -0.4529  0.8105
  820TIP3P    H 2459   0.648   0.634   2.443 -2.0843 -0.6464 -1.6104
  820TIP3P    H 2460   0.672   0.754   2.353 -1.4444  0.9652  0.6514
  821TIP3P    O 2461   0.882   0.263   0.337 -0.0545 -0.2854 -0.4640
  821TIP3P    H 2462   0.841   0.333   0.389  0.8096 -1.0468  1.2986
  821TIP3P    H 2463   0.854   0.280   0.247 -0.2915  2.0178  0.0140
  822TIP3P    O 2464   2.750   1.096   2.772 -0.4825 -0.0953  0.2229
  822TIP3P    H 2465   2.786   1.054   2.850 -1.3894  0.0263  0.7217
  822TIP3P    H 2466   2.740   1.188   2.798 -3.0148 -0.4994  0.7936
  823TIP3P    O 2467   1.359   2.606   0.778  0.3149  0.2742  0.2742
  823TIP3P    H 2468   1.413   2.565   0.846  1.1573 -1.6619 -1.5197
  823TIP3P    H 2469   1.300   2.664   0.827  2.5520  0.8372  2.4526
  824TIP3P    O 2470   0.995   2.244   2.133  0.1384  0.3244  0.4485
  824TIP3P    H 2471   0.913   2.273   2.091  1.3982  0.6039 -1.9364
  824TIP3P    H 2472   0.992   2.149   2.128  0.4334  0.3594 -0.6639
  825TIP3P    O 2473   0.320   2.964   0.843  0.2307 -0.2268 -0.3090
  825TIP3P    H 2474   0.266   3.040   0.824 -0.0931 -0.5623 -0.7189
  825TIP3P    H 2475   0.313   2.909   0.765  0.4872 -0.6616 -0.0257
  826TIP3P    O 2476   2.389   1.774   2.192  0.7419  0.2112  0.4256
  826TIP3P    H 2477   2.371   1.788   2.285  0.7332 -0.6985  0.5691
  826TIP3P    H 2478   2.412   1.861   2.158  0.8619  0.5233  1.2999
  827TIP3P    O 2479   2.795   3.070   2.419 -0.2298 -0.2028  0.2102
  827TIP3P    H 2480   2.813   3.030   2.504 -1.3448  2.9169  1.9974
  827TIP3P    H 2481   2.703   3.097   2.424 -0.0212  0.9643 -1.5903
  828TIP3P    O 2482   2.417   1.691   0.580  0.0731 -0.0196 -0.4762
  828TIP3P    H 2483   2.325   1.673   0.600 -0.4854  0.1986 -2.6640
  828TIP3P    H 2484   2.426   1.786   0.592 -0.5034  0.2600 -2.0318
  829TIP3P    O 2485   1.997   2.768   2.701 -0.1323  0.6790  0.2643
  829TIP3P    H 2486   1.943   2.783   2.779 -0.7532  2.4970 -0.4737
  829TIP3P    H 2487   1.987   2.675   2.682  1.4602 -0.2260  3.3734
  830TIP3P    O 2488   0.922   2.561   0.730 -0.0853 -0.5949  0.4708
  830TIP3P    H 2489   0.880   2.642   0.702 -0.2643 -1.2903 -1.3466
  830TIP3P    H 2490   1.002   2.589   0.774 -0.6707  0.5961  0.7919
  831TIP3P    O 2491   1.477   2.366   2.346 -0.4204 -0.5499 -0.3166
  831TIP3P    H 2492   1.390   2.360   2.304 -0.8403 -0.8789  0.5994
  831TIP3P    H 2493   1.534   2.317   2.287 -0.7609  0.0469 -1.1681
  832TIP3P    O 2494   0.625   0.177   0.105 -0.0222  0.0590  0.5305
  832TIP3P    H 2495   0.704   0.124   0.097 -1.1153 -1.3683 -1.0887
  832TIP3P    H 2496   0.597   0.165   0.195 -0.1045 -1.9140  0.2556
  833TIP3P    O 2497   0.770   0.212   0.992  0.0302 -0.8307  0.5167
  833TIP3P    H 2498   0.784   0.226   1.086  1.7472 -1.1512  0.3372
  833TIP3P    H 2499   0.765   0.116   0.983 -0.6328 -0.7806  0.3471
  834TIP3P    O 2500   2.497   2.815   1.356  0.0449  0.0163 -0.1719
  834TIP3P    H 2501   2.496   2.787   1.264 -0.3886 -1.2006  0.2048
  834TIP3P    H 2502   2.406   2.805   1.385  0.4377 -0.8456  0.7696
  835TIP3P    O 2503   1.175   1.168   1.807  0.6066  0.0035  0.0964
  835TIP3P    H 2504   1.253   1.113   1.804  1.2838  0.9756 -0.6731
  835TIP3P    H 2505   1.105   1.110   1.837  1.7831 -0.7026  1.5565
  836TIP3P    O 2506   0.414   2.751   2.144  0.5328 -0.2256  0.1176
  836TIP3P    H 2507   0.366   2.751   2.226 -0.6325  0.3240 -0.5503
  836TIP3P    H 2508   0.400   2.664   2.107 -1.1723  0.4123 -0.7687
  837TIP3P    O 2509   2.070   1.827   0.125 -0.2060 -0.3602  0.1658
  837TIP3P    H 2510   2.023   1.894   0.076  0.3765 -0.9299 -1.1914
  837TIP3P    H 2511   2.161   1.856   0.123  0.1066 -1.3578 -0.7461
  838TIP3P    O 2512   0.306   1.008   2.280  0.3600 -0.0038  0.2537
  838TIP3P    H 2513   0.369   1.069   2.243 -1.6512  0.9248 -1.7840
  838TIP3P    H 2514   0.301   0.936   2.218 -0.1517 -0.3407  0.6748
  839TIP3P    O 2515   2.224   2.770   1.394 -0.0652  0.8521 -0.3553
  839TIP3P    H 2516   2.177   2.716   1.331  0.2185 -0.1959  0.3279
  839TIP3P    H 2517   2.198   2.736   1.480  1.5390  0.5832  0.0416
  840TIP3P    O 2518   2.866   0.970   1.596 -0.2838 -0.6837 -0.0965
  840TIP3P    H 2519   2.861   0.982   1.690 -2.5249 -2.0225  0.0053
  840TIP3P    H 2520   2.802   1.032   1.560  1.7553  1.0323 -0.8921
  841TIP3P    O 2521   2.773   2.709   0.651 -0.1292  0.1233 -0.0924
  841TIP3P    H 2522   2.852   2.705   0.597 -0.1424  1.5214 -0.2459
  841TIP3P    H 2523   2.732   2.623   0.641  1.1179 -0.4479 -0.3912
  842TIP3P    O 2524   0.460   0.212   2.226 -0.4557 -0.0123  0.6100
  842TIP3P    H 2525   0.549   0.197   2.195 -0.9038 -0.8687 -0.2840
  842TIP3P    H 2526   0.451   0.308   2.227 -0.3417  0.0431 -1.6663
  843TIP3P    O 2527   1.571   0.814   1.937 -0.4385  0.4564  0.3442
  843TIP3P    H 2528   1.636   0.826   1.868 -1.0818  0.3364 -0.2923
  843TIP3P    H 2529   1.610   0.751   1.997 -0.0913  0.1587 -0.1891
  844TIP3P    O 2530   3.074   2.243   0.255  0.4251 -0.5514 -0.3543
  844TIP3P    H 2531   3.005   2.305   0.279 -0.5622 -1.6437 -0.3055
  844TIP3P    H 2532   3.046   2.160   0.295  2.2314 -0.8013  0.4416
  845TIP3P    O 2533   1.751   0.962   2.737  0.0570  0.3546 -0.2057
  845TIP3P    H 2534   1.764   0.883   2.789  1.2277 -0.6690 -1.9883
  845TIP3P    H 2535   1.708   1.023   2.797  1.6116 -0.6735  2.0449
  846TIP3P    O 2536   2.022   1.433   2.482  0.2904  0.2434  0.0064
  846TIP3P    H 2537   1.980   1.346   2.477  0.7581 -0.0008  0.3193
  846TIP3P    H 2538   2.057   1.447   2.394  0.6642 -0.1159  0.0933
  847TIP3P    O 2539   0.316   1.341   0.864  0.4384  0.1109 -0.5148
  847TIP3P    H 2540   0.409   1.356   0.882  0.6267 -0.8590 -0.6661
  847TIP3P    H 2541   0.278   1.322   0.949  0.3687  0.5552 -0.4463
  848TIP3P    O 2542   0.292   1.437   1.640  0.2005 -0.3011  0.3626
  848TIP3P    H 2543   0.362   1.496   1.670 -0.1837  1.5801 -2.2399
  848TIP3P    H 2544   0.315   1.417   1.549 -0.9171 -2.3275  0.5138
  849TIP3P    O 2545   0.983   2.698   1.892  0.0463 -0.1883 -0.0021
  849TIP3P    H 2546   0.938   2.649   1.961 -0.4406 -0.4576 -0.5106
  849TIP3P    H 2547   0.944   2.786   1.895  0.7507  0.1076  0.7482
  850TIP3P    O 2548   0.576   0.232   0.389 -0.6019  0.2201  0.3587
  850TIP3P    H 2549   0.510   0.203   0.452  0.1748  0.2281  1.1851
  850TIP3P    H 2550   0.652   0.256   0.443  0.6447 -1.2857 -0.6833
  851TIP3P    O 2551   2.587   2.521   1.852  0.2098  0.0488 -0.0722
  851TIP3P    H 2552   2.617   2.470   1.927  0.1184 -0.6438 -0.5047
  851TIP3P    H 2553   2.650   2.502   1.783  0.1814  0.5340 -0.2345
  852TIP3P    O 2554   2.066   2.189   0.559  0.9895 -0.0947 -0.0727
  852TIP3P    H 2555   2.120   2.165   0.634  1.4481  0.9136 -0.0714
  852TIP3P    H 2556   1.979   2.156   0.580  1.1848 -0.0607  0.7752
  853TIP3P    O 2557   0.460   2.108   2.049 -0.1871  0.2946  0.1729
  853TIP3P    H 2558   0.378   2.125   2.004  0.6746  2.0881 -0.7765
  853TIP3P    H 2559   0.462   2.171   2.121  0.6220  0.6661 -0.1633
  854TIP3P    O 2560   0.337   2.758   3.052 -0.0675 -0.5851 -0.3558
  854TIP3P    H 2561   0.264   2.698   3.070  1.0969 -1.2720  2.2227
  854TIP3P    H 2562   0.410   2.723   3.104  1.2146  1.8737 -0.4716
  855TIP3P    O 2563   0.487   0.653   1.511  0.3250  0.2042 -0.3113
  855TIP3P    H 2564   0.490   0.746   1.536  0.7195  0.7709 -2.4220
  855TIP3P    H 2565   0.443   0.652   1.426 -2.0090 -1.8147  0.8450
  856TIP3P    O 2566   0.298   0.905   2.794  0.8635  0.1945 -0.5106
  856TIP3P    H 2567   0.303   0.941   2.706  0.1449 -1.4646 -1.2575
  856TIP3P    H 2568   0.375   0.940   2.839 -0.0850  3.0292 -1.0126
  857TIP3P    O 2569   2.827   0.437   1.296 -0.0670  0.1137 -0.2063
  857TIP3P    H 2570   2.751   0.410   1.348 -0.4797 -0.9105 -1.3201
  857TIP3P    H 2571   2.875   0.356   1.279 -0.8710  0.1387 -2.8907
  858TIP3P    O 2572   2.767   0.681   0.763 -0.2021  0.3668 -0.0619
  858TIP3P    H 2573   2.853   0.642   0.752 -0.5008 -0.0663 -0.8695
  858TIP3P    H 2574   2.730   0.636   0.839  0.6821  1.2855  0.9382
  859TIP3P    O 2575   0.461   0.070   3.002  0.4088 -0.1493 -0.9711
  859TIP3P    H 2576   0.527   0.125   3.045  1.1505 -0.0331 -2.2340
  859TIP3P    H 2577   0.511  -0.003   2.966 -0.3836 -0.9316 -0.5144
  860TIP3P    O 2578   1.440   3.094   2.292 -0.1375 -0.2730  0.0789
  860TIP3P    H 2579   1.421   3.186   2.310 -0.2497 -0.4139  0.6886
  860TIP3P    H 2580   1.384   3.046   2.353 -0.3611 -0.7525 -0.5068
  861TIP3P    O 2581   2.136   1.280   0.011 -0.1551  0.0666  0.4992
  861TIP3P    H 2582   2.208   1.341   0.024 -0.1853  0.1313  0.3665
  861TIP3P    H 2583   2.058   1.328   0.039 -0.6007  1.2278 -2.5053
  862TIP3P    O 2584   2.193   1.360   0.578  0.4906  0.6784  0.4638
  862TIP3P    H 2585   2.184   1.425   0.648 -0.8746 -0.3546  1.2643
  862TIP3P    H 2586   2.227   1.282   0.622  0.6929  0.3684 -0.2319
  863TIP3P    O 2587   1.456   1.708   0.614  0.1084  0.5815  0.0301
  863TIP3P    H 2588   1.516   1.718   0.688 -1.1008 -0.1011  1.1268
  863TIP3P    H 2589   1.480   1.778   0.554  0.4046  1.8263  1.5680
  864TIP3P    O 2590   1.823   0.312   3.041  0.4546  0.0754  0.2578
  864TIP3P    H 2591   1.777   0.297   2.958  0.5168 -0.4867  0.3216
  864TIP3P    H 2592   1.788   0.395   3.073 -1.8863 -1.2279  1.2076
  865TIP3P    O 2593   1.684   2.050   1.915  0.0599 -0.0321  0.1714
  865TIP3P    H 2594   1.702   1.966   1.871 -0.6376 -0.0465 -0.0810
  865TIP3P    H 2595   1.634   2.026   1.993 -0.1235  0.1521  0.1091
  866TIP3P    O 2596   2.385   2.257   2.006  0.0777  0.2785 -0.2825
  866TIP3P    H 2597   2.466   2.306   1.992  1.8060 -2.5786 -0.7086
  866TIP3P    H 2598   2.373   2.208   1.924 -0.9507 -0.8650  0.5481
  867TIP3P    O 2599   0.665   0.468   2.345 -0.1022  0.0531 -0.8212
  867TIP3P    H 2600   0.752   0.461   2.305 -0.5892 -2.7783 -1.4948
  867TIP3P    H 2601   0.605   0.472   2.270 -0.7284 -0.7926 -0.3678
  868TIP3P    O 2602   0.729   2.251   2.017 -0.3722  0.2183  0.3680
  868TIP3P    H 2603   0.749   2.270   1.926 -1.3290  0.2020  0.1507
  868TIP3P    H 2604   0.652   2.194   2.014 -0.0433 -0.2805  1.1590
  869TIP3P    O 2605   3.072   2.850   2.455  0.4673  0.1090  0.3895
  869TIP3P    H 2606   3.059   2.772   2.401  1.0668  0.7396 -0.6878
  869TIP3P    H 2607   3.006   2.843   2.524  0.3259 -1.1977  0.1350
  870TIP3P    O 2608   2.473   1.399   1.522 -0.0762  0.6081 -0.1534
  870TIP3P    H 2609   2.409   1.343   1.478 -2.0605  3.5082 -1.0708
  870TIP3P    H 2610   2.459   1.382   1.615 -0.0659 -1.0307 -0.4396
  871TIP3P    O 2611   1.686   2.678   1.700 -0.4042 -0.2565 -0.6827
  871TIP3P    H 2612   1.596   2.710   1.703 -0.6190 -0.9401  1.4758
  871TIP3P    H 2613   1.700   2.638   1.786  1.2663 -2.0650 -1.7513
  872TIP3P    O 2614   0.533   2.867   1.207  0.7668  0.1765  0.3114
  872TIP3P    H 2615   0.534   2.932   1.276 -2.6903  4.1258 -3.1146
  872TIP3P    H 2616   0.595   2.900   1.141 -1.5618  0.4940 -1.7840
  873TIP3P    O 2617   1.860   2.403   1.058 -0.1084  0.3272 -0.1649
  873TIP3P    H 2618   1.891   2.398   1.148  0.6891 -1.5789 -0.5212
  873TIP3P    H 2619   1.890   2.489   1.027  1.5156  0.0986  0.6997
  874TIP3P    O 2620   3.019   2.209   2.450 -0.1764  0.0829  0.6423
  874TIP3P    H 2621   3.104   2.193   2.490  1.3635 -0.0453 -2.5053
  874TIP3P    H 2622   3.004   2.133   2.395 -0.7848  1.5930 -1.3403
  875TIP3P    O 2623   2.820   0.865   2.610  0.3131 -0.1676  0.8007
  875TIP3P    H 2624   2.810   0.916   2.690  0.5544 -3.0498  2.7087
  875TIP3P    H 2625   2.735   0.870   2.567  0.2848  1.6730  1.0213
  876TIP3P    O 2626   0.185   0.399   0.832 -0.4309  0.2944  0.1081
  876TIP3P    H 2627   0.167   0.469   0.769  1.1379  0.9682  0.3916
  876TIP3P    H 2628   0.195   0.444   0.916 -1.6844 -0.5216  0.7231
  877TIP3P    O 2629   3.017   2.883   1.837 -0.3910 -0.0430 -0.3772
  877TIP3P    H 2630   2.941   2.834   1.867 -0.0665  0.8453  2.0186
  877TIP3P    H 2631   3.091   2.823   1.848 -0.5665 -0.4763 -1.5173
  878TIP3P    O 2632   2.060   2.546   3.073 -0.3952  0.2988 -0.1086
  878TIP3P    H 2633   2.060   2.641   3.067 -0.6253  0.4057  1.3959
  878TIP3P    H 2634   1.993   2.518   3.010 -1.6546  1.2466  0.7693
  879TIP3P    O 2635   2.685   2.364   2.068 -0.3746  0.5213  0.6248
  879TIP3P    H 2636   2.716   2.400   2.151 -0.7383  1.5477  0.3247
  879TIP3P    H 2637   2.695   2.270   2.077 -1.0234  0.5798  2.0838
  880TIP3P    O 2638   1.015   1.317   2.160  0.1872 -0.1853  0.5992
  880TIP3P    H 2639   1.049   1.404   2.177 -0.3601  0.7609 -2.8604
  880TIP3P    H 2640   1.067   1.284   2.087 -1.1362 -1.8092  0.3506
  881TIP3P    O 2641   1.392   2.176   0.334 -0.3119 -1.1962 -0.2940
  881TIP3P    H 2642   1.442   2.184   0.415 -0.6363 -0.5651 -0.1524
  881TIP3P    H 2643   1.303   2.154   0.363 -1.0299  1.4770 -0.3232
  882TIP3P    O 2644   0.874   2.285   1.641  0.0022  0.0408 -0.0524
  882TIP3P    H 2645   0.794   2.234   1.650 -0.3439  0.5268 -0.3499
  882TIP3P    H 2646   0.845   2.376   1.646  0.4259  0.2379 -0.9757
  883TIP3P    O 2647   1.014   1.105   0.214 -0.6613  0.0421 -0.7529
  883TIP3P    H 2648   0.941   1.162   0.237 -0.2178  0.4738 -0.4203
  883TIP3P    H 2649   0.997   1.080   0.123 -0.6378  1.0302 -1.0333
  884TIP3P    O 2650   1.595   0.755   2.961  0.4400 -0.5278 -0.8581
  884TIP3P    H 2651   1.528   0.768   2.894  0.4129  0.1803 -0.6948
  884TIP3P    H 2652   1.625   0.665   2.948 -1.4692 -1.3084 -0.0944
  885TIP3P    O 2653   2.101   0.017   0.143 -0.6672  0.5217  0.3605
  885TIP3P    H 2654   2.010   0.038   0.124 -0.3378  1.0703 -0.6306
  885TIP3P    H 2655   2.145   0.102   0.152 -0.5807  0.2740  2.4945
  886TIP3P    O 2656   0.463   1.984   1.168 -0.6987 -0.2264  0.8022
  886TIP3P    H 2657   0.414   1.909   1.133 -0.0703  0.9722 -2.9120
  886TIP3P    H 2658   0.397   2.050   1.187 -0.8540  0.2582 -1.2593
  887TIP3P    O 2659   0.241   0.529   0.349  0.0877  0.1822  0.1935
  887TIP3P    H 2660   0.248   0.440   0.313 -1.1368  0.7122 -1.3887
  887TIP3P    H 2661   0.174   0.571   0.296 -0.4453  1.5811  1.9343
  888TIP3P    O 2662   1.980   2.842   0.566  0.1822 -0.1065 -0.5398
  888TIP3P    H 2663   2.041   2.768   0.560  0.7093  0.1100  1.7067
  888TIP3P    H 2664   2.034   2.919   0.550 -0.2055 -0.1277 -2.0364
  889TIP3P    O 2665   0.289   0.663   1.318 -0.2000  0.2320 -0.1809
  889TIP3P    H 2666   0.240   0.625   1.245  1.2242 -1.2955 -0.3480
  889TIP3P    H 2667   0.265   0.756   1.317 -0.2041  0.2185 -2.5654
  890TIP3P    O 2668   1.966   1.305   2.018 -0.2358  0.2376  0.3255
  890TIP3P    H 2669   1.995   1.395   2.035 -0.0667  0.3073 -0.3339
  890TIP3P    H 2670   1.898   1.314   1.951  0.8828 -0.2561 -0.8984
  891TIP3P    O 2671   2.316   1.974   3.089  0.3527  0.5913  0.4356
  891TIP3P    H 2672   2.253   2.026   3.039  0.1407 -0.3559 -0.2930
  891TIP3P    H 2673   2.396   1.976   3.036  0.6835  1.0635  0.9374
  892TIP3P    O 2674   1.206   2.399   0.729  0.4744  0.0916  0.5297
  892TIP3P    H 2675   1.154   2.423   0.653  0.3036  2.5686  1.3743
  892TIP3P    H 2676   1.274   2.466   0.734  0.4713 -0.0169  2.5248
  893TIP3P    O 2677   2.242   2.181   0.788  0.3564 -0.2251  0.4728
  893TIP3P    H 2678   2.248   2.133   0.871  0.8499 -0.0236  0.5575
  893TIP3P    H 2679   2.333   2.203   0.767  0.5125 -2.3994 -1.3878
  894TIP3P    O 2680   0.052   2.181   3.110  0.2438  0.1125  0.2451
  894TIP3P    H 2681   0.047   2.164   3.204 -0.7344  1.5431  0.4609
  894TIP3P    H 2682   0.119   2.120   3.079  2.1924  1.1931  2.2101
  895TIP3P    O 2683   2.688   1.553   0.754 -0.1401  0.3111  0.3782
  895TIP3P    H 2684   2.646   1.586   0.834  0.4559  0.7649  0.5082
  895TIP3P    H 2685   2.620   1.502   0.711 -0.1265 -0.9010  1.7553
  896TIP3P    O 2686   1.473   1.342   3.004  0.1825 -0.1162 -0.1987
  896TIP3P    H 2687   1.462   1.250   2.978 -0.0672  0.1085 -0.9006
  896TIP3P    H 2688   1.475   1.390   2.921 -0.5040  0.5984  0.1905
  897TIP3P    O 2689   1.507   1.669   1.668  0.6355 -0.2825  0.2826
  897TIP3P    H 2690   1.484   1.638   1.755 -0.0526 -1.0202 -0.1548
  897TIP3P    H 2691   1.428   1.657   1.616  0.8909  0.5962 -0.3303
  898TIP3P    O 2692   2.005   1.898   1.752  0.1723  0.0323  0.3876
  898TIP3P    H 2693   2.063   1.829   1.720  1.9230  1.6069  0.0830
  898TIP3P    H 2694   2.052   1.936   1.826 -1.0137  0.5566  0.8860
  899TIP3P    O 2695   2.426   2.054   0.342  0.2466 -0.3819  0.3794
  899TIP3P    H 2696   2.333   2.074   0.356  0.3610  1.5444 -1.3293
  899TIP3P    H 2697   2.426   1.971   0.294 -0.6487  0.2489 -0.7197
  900TIP3P    O 2698   3.074   2.045   1.454  0.3855 -0.1421 -0.0831
  900TIP3P    H 2699   3.088   2.063   1.547 -3.0995  1.1139  0.2737
  900TIP3P    H 2700   3.053   1.952   1.450  0.4693 -0.1845  0.3902
  901TIP3P    O 2701   1.186   2.529   1.153 -0.1629  0.1354  0.4067
  901TIP3P    H 2702   1.211   2.588   1.082 -0.1274 -0.0367  0.2767
  901TIP3P    H 2703   1.092   2.544   1.164 -0.0379  0.6498  0.7729
  902TIP3P    O 2704   2.319   2.951   0.166 -0.4015 -0.2250  0.4784
  902TIP3P    H 2705   2.383   3.023   0.166 -0.0242 -0.5314 -2.3625
  902TIP3P    H 2706   2.235   2.994   0.181 -0.0624  0.6982 -0.2410
  903TIP3P    O 2707   1.667   0.265   0.490 -0.3344  0.4578  0.2767
  903TIP3P    H 2708   1.749   0.314   0.500  0.2881 -0.6458  0.7123
  903TIP3P    H 2709   1.663   0.209   0.567 -1.2624  0.1484  0.0128
  904TIP3P    O 2710   0.074   0.652   1.980  0.0417 -0.0550 -0.0540
  904TIP3P    H 2711   0.030   0.581   2.026  0.3104 -1.0898 -1.3418
  904TIP3P    H 2712   0.009   0.683   1.917  0.5698 -0.4663 -0.8119
  905TIP3P    O 2713   2.210   2.973   2.742 -0.1632 -0.4210  0.1312
  905TIP3P    H 2714   2.225   3.034   2.814  1.1318  0.0542 -0.5265
  905TIP3P    H 2715   2.119   2.945   2.753  0.5030 -1.6953  2.9746
  906TIP3P    O 2716   2.166   0.020   2.968 -0.5446  0.0431  0.6934
  906TIP3P    H 2717   2.111   0.098   2.968 -1.5039 -0.6224  0.0204
  906TIP3P    H 2718   2.148  -0.021   3.053  1.9196  1.8760  2.1789
  907TIP3P    O 2719   2.895   2.365   1.035 -0.6402 -0.6589  0.5711
  907TIP3P    H 2720   2.819   2.344   1.088  0.9625  1.1889  3.7535
  907TIP3P    H 2721   2.898   2.461   1.034  0.9431 -0.6989 -0.5237
  908TIP3P    O 2722   2.714   1.526   1.418  0.3136 -0.5607  0.1092
  908TIP3P    H 2723   2.671   1.512   1.334  1.8906  2.3040 -1.2536
  908TIP3P    H 2724   2.646   1.561   1.475 -0.1203  0.1102 -0.8123
  909TIP3P    O 2725   0.479   1.237   0.168 -0.1951  0.0964  0.1849
  909TIP3P    H 2726   0.417   1.262   0.099 -0.0361 -0.6524 -0.2405
  909TIP3P    H 2727   0.454   1.291   0.243 -1.2663 -0.0690 -0.0324
  910TIP3P    O 2728   0.619   2.601   1.334 -0.0502 -0.4349  0.4210
  910TIP3P    H 2729   0.597   2.682   1.287  0.2101 -0.8469 -0.4218
  910TIP3P    H 2730   0.666   2.631   1.412 -1.5609  0.3312  1.0652
  911TIP3P    O 2731   1.088   1.517   1.412  0.1111 -0.0186  0.3048
  911TIP3P    H 2732   1.075   1.433   1.455 -2.0731  0.5111  0.7398
  911TIP3P    H 2733   1.007   1.533   1.364 -0.0473  2.4592  1.3294
  912TIP3P    O 2734   2.193   0.366   2.158 -0.1487  0.2556  0.0294
  912TIP3P    H 2735   2.159   0.295   2.212 -0.2233 -0.8848 -1.4691
  912TIP3P    H 2736   2.145   0.357   2.075  1.9806  0.1893 -1.2250
  913TIP3P    O 2737   0.775   0.859   0.018  0.2598 -0.1254 -0.2254
  913TIP3P    H 2738   0.776   0.955   0.022  3.0596 -0.1309  0.9676
  913TIP3P    H 2739   0.719   0.838  -0.056  0.3314  2.4733 -1.0697
  914TIP3P    O 2740   2.859   0.707   1.550 -0.3983  0.1283 -0.6335
  914TIP3P    H 2741   2.780   0.672   1.592  0.8419  0.1197  1.7634
  914TIP3P    H 2742   2.852   0.802   1.562  0.1883  0.0904  0.0099
  915TIP3P    O 2743   1.983   0.336   1.782  0.1607 -0.0212  0.3569
  915TIP3P    H 2744   1.992   0.290   1.866  2.7156 -0.8888 -0.3611
  915TIP3P    H 2745   1.963   0.267   1.719 -1.3413  0.5825  0.1381
  916TIP3P    O 2746   2.105   1.241   0.334 -0.5053 -0.2493  0.4182
  916TIP3P    H 2747   2.112   1.292   0.415 -2.3610  0.5260  0.1046
  916TIP3P    H 2748   2.153   1.293   0.270 -0.3034 -0.1263  0.6650
  917TIP3P    O 2749   2.990   1.744   2.106  0.6886  0.0864 -0.2133
  917TIP3P    H 2750   3.034   1.716   2.186 -0.0625 -0.1910  0.1128
  917TIP3P    H 2751   3.019   1.833   2.091  1.3271 -0.0833  0.0191
  918TIP3P    O 2752   1.764   1.626   2.364  0.1247  0.0024 -0.2903
  918TIP3P    H 2753   1.749   1.572   2.287  0.2740  0.4250 -0.6213
  918TIP3P    H 2754   1.692   1.606   2.423 -0.8206  0.7810 -1.1633
  919TIP3P    O 2755   0.957   3.110   1.275  0.0183 -0.4787  0.1000
  919TIP3P    H 2756   0.977   3.195   1.235 -0.6258 -0.1561  0.4536
  919TIP3P    H 2757   0.901   3.066   1.211  1.1040 -1.0202 -0.4936
  920TIP3P    O 2758   0.245   1.386   2.184 -0.0536 -0.4663 -0.2220
  920TIP3P    H 2759   0.245   1.344   2.270  0.0426  1.4254  0.7113
  920TIP3P    H 2760   0.154   1.380   2.155 -0.3160 -0.1107  0.5137
  921TIP3P    O 2761   2.820   1.271   2.206 -0.0702 -0.2752  0.1950
  921TIP3P    H 2762   2.824   1.358   2.246  0.0055  0.1990 -0.8181
  921TIP3P    H 2763   2.782   1.215   2.273  0.1460  0.4818  0.9569
  922TIP3P    O 2764   0.626   2.123   1.727 -0.0383  0.6253  0.3022
  922TIP3P    H 2765   0.532   2.133   1.717 -0.0512 -1.2744 -1.9137
  922TIP3P    H 2766   0.642   2.029   1.717  1.8919  0.6340  2.7364
  923TIP3P    O 2767   3.028   3.065   0.912  0.2301 -0.1803 -0.1462
  923TIP3P    H 2768   3.111   3.045   0.870  0.5307 -1.8245  1.2118
  923TIP3P    H 2769   2.964   3.012   0.865  0.1925 -0.1569 -0.1222
  924TIP3P    O 2770   3.098   1.849   2.549 -0.1754 -0.5754  0.0259
  924TIP3P    H 2771   3.086   1.903   2.471  0.7725 -1.3700 -0.6917
  924TIP3P    H 2772   3.094   1.759   2.515  0.6445 -0.9183  0.8427
  925TIP3P    O 2773   1.308   2.677   1.866 -0.4478  0.5538  0.2285
  925TIP3P    H 2774   1.233   2.689   1.924 -0.4343  1.2002  0.1215
  925TIP3P    H 2775   1.273   2.635   1.788 -0.4549 -0.3897  0.7311
  926TIP3P    O 2776   3.100   2.146   0.605  0.4062 -0.4126  0.0455
  926TIP3P    H 2777   3.044   2.223   0.618  0.4229 -0.3048 -0.5071
  926TIP3P    H 2778   3.059   2.099   0.532  0.4702 -0.8593  0.2977
  927TIP3P    O 2779   2.346   1.092   1.024 -0.1336  0.1803 -0.0136
  927TIP3P    H 2780   2.393   1.021   0.982 -0.0865 -0.1856  0.6423
  927TIP3P    H 2781   2.269   1.051   1.064 -1.3869  0.8879 -1.6615
  928TIP3P    O 2782   0.684   2.028   2.338  0.2003 -0.7053  0.1869
  928TIP3P    H 2783   0.737   2.070   2.271 -0.9474 -2.2878 -1.7487
  928TIP3P    H 2784   0.704   2.076   2.418  2.0502  0.8129 -1.1582
  929TIP3P    O 2785   1.458   1.384   0.722 -0.1888  0.1163 -0.0335
  929TIP3P    H 2786   1.554   1.380   0.720 -0.1288  1.7238 -2.5853
  929TIP3P    H 2787   1.430   1.295   0.701  0.7731  0.0216 -0.9731
  930TIP3P    O 2788   0.110   1.590   1.138  0.1803  0.0974 -0.2946
  930TIP3P    H 2789   0.028   1.568   1.182 -0.5200  0.0643 -1.5908
  930TIP3P    H 2790   0.083   1.638   1.060  1.4845  1.7099  0.2250
  931TIP3P    O 2791   2.576   1.479   1.161  0.4790 -0.4778  0.3054
  931TIP3P    H 2792   2.578   1.557   1.105  0.9654 -0.8844 -0.2594
  931TIP3P    H 2793   2.648   1.424   1.127  0.4524 -0.9479  1.0127
  932TIP3P    O 2794   2.010   1.251   1.502 -0.6277 -0.3347 -0.3701
  932TIP3P    H 2795   2.074   1.234   1.571 -0.8472  0.3240  0.0018
  932TIP3P    H 2796   1.945   1.181   1.512 -1.5349  0.6826  1.1676
  933TIP3P    O 2797   1.951   2.171   2.601  0.1946 -0.0022 -0.0374
  933TIP3P    H 2798   1.887   2.103   2.579 -1.5377  1.5138  0.1951
  933TIP3P    H 2799   1.973   2.211   2.517  0.8539 -0.5316 -0.1181
  934TIP3P    O 2800   0.526   0.427   0.075  0.0120  0.2961 -0.5705
  934TIP3P    H 2801   0.507   0.427  -0.019  1.3412  0.3425 -0.8443
  934TIP3P    H 2802   0.585   0.352   0.087 -0.2153  0.2446  0.2481
  935TIP3P    O 2803   2.582   2.625   1.570 -0.4835  0.3992 -0.4011
  935TIP3P    H 2804   2.615   2.688   1.506  1.0238  0.4353  0.3681
  935TIP3P    H 2805   2.600   2.540   1.530 -0.2652  0.4328 -0.3785
  936TIP3P    O 2806   0.619   1.495   2.806 -0.3680  0.1020  0.2774
  936TIP3P    H 2807   0.605   1.498   2.711 -1.2573  1.9023  0.4554
  936TIP3P    H 2808   0.680   1.567   2.823  0.8548 -1.0575  0.9162
  937TIP3P    O 2809   0.728   2.009   1.100 -0.0992 -0.4275  0.1867
  937TIP3P    H 2810   0.679   1.999   1.182  0.1228 -1.6155  0.1738
  937TIP3P    H 2811   0.665   1.984   1.032  0.5595 -2.0944  0.1777
  938TIP3P    O 2812   2.818   1.871   0.242  0.3607 -0.3489  0.4319
  938TIP3P    H 2813   2.832   1.779   0.265 -0.8949 -0.3713  1.1445
  938TIP3P    H 2814   2.723   1.882   0.244  0.1981 -0.0287 -3.5872
  939TIP3P    O 2815   0.662   0.716   2.771  0.7921 -0.3771  0.2915
  939TIP3P    H 2816   0.622   0.788   2.820  1.7319  0.3606 -0.0001
  939TIP3P    H 2817   0.723   0.759   2.711 -0.0430 -1.3010 -1.2419
  940TIP3P    O 2818   1.950   0.633   3.014  0.3793 -0.8754  0.1153
  940TIP3P    H 2819   1.904   0.713   2.988  0.8090 -1.0422 -1.1814
  940TIP3P    H 2820   1.951   0.637   3.110 -1.3393 -0.3249  0.1299
  941TIP3P    O 2821   2.421   1.875   2.489  0.2184 -1.2636  0.0432
  941TIP3P    H 2822   2.494   1.827   2.449  1.2072  0.5236 -0.3397
  941TIP3P    H 2823   2.456   1.906   2.572 -0.0612 -0.2602 -0.2156
  942TIP3P    O 2824   0.813   2.385   0.996 -0.0197  0.7963  0.9357
  942TIP3P    H 2825   0.815   2.453   0.928 -2.8043 -0.3446 -0.3551
  942TIP3P    H 2826   0.890   2.331   0.979 -0.1685  1.0977 -0.7127
  943TIP3P    O 2827   2.963   1.260   2.876 -0.1447  0.2212 -0.1373
  943TIP3P    H 2828   3.003   1.200   2.812 -3.1485 -1.2801 -0.6595
  943TIP3P    H 2829   2.998   1.232   2.960  0.5839 -0.4985 -0.6708
  944TIP3P    O 2830   2.008   2.262   2.332 -0.1939 -0.3008  0.2301
  944TIP3P    H 2831   1.944   2.333   2.340  0.5632  0.2740  1.2727
  944TIP3P    H 2832   2.083   2.301   2.288 -0.3508 -0.8479 -0.5365
  945TIP3P    O 2833   0.926   0.184   2.014 -0.0662 -0.0881 -0.1213
  945TIP3P    H 2834   0.957   0.193   2.104 -0.2374  2.6862 -0.2989
  945TIP3P    H 2835   0.990   0.233   1.962 -2.7847  2.9045 -0.8642
  946TIP3P    O 2836   1.647   1.428   2.191 -0.5720  0.0635 -0.4418
  946TIP3P    H 2837   1.709   1.375   2.241 -0.2100  0.8591 -0.0413
  946TIP3P    H 2838   1.695   1.454   2.113 -1.2457 -1.4584 -1.3864
  947TIP3P    O 2839   0.904   0.718   0.789 -0.2467  0.0219  0.1822
  947TIP3P    H 2840   0.896   0.676   0.874 -1.1764  0.6689  0.4202
  947TIP3P    H 2841   0.866   0.656   0.727  0.8337 -0.6448  0.1611
  948TIP3P    O 2842   1.818   1.837   2.568 -0.1130  0.1425  0.4645
  948TIP3P    H 2843   1.913   1.834   2.560 -0.2532  1.1542 -1.7759
  948TIP3P    H 2844   1.787   1.760   2.519 -0.4293 -0.8720  2.1891
  949TIP3P    O 2845   0.452   1.866   0.398 -0.1429  0.0426  0.3932
  949TIP3P    H 2846   0.400   1.823   0.466  1.2753 -0.7005  1.0358
  949TIP3P    H 2847   0.408   1.950   0.384 -1.2163 -0.3553  1.2779
  950TIP3P    O 2848   0.371   1.865   2.603  0.6432  0.1602  0.0216
  950TIP3P    H 2849   0.406   1.941   2.649  1.1403  0.4021 -0.7563
  950TIP3P    H 2850   0.417   1.790   2.641 -1.0991  0.0553  2.0289
  951TIP3P    O 2851   2.998   1.985   2.312 -0.1903  0.2847  0.1318
  951TIP3P    H 2852   3.047   1.996   2.230 -0.3178 -1.7249 -0.2173
  951TIP3P    H 2853   2.908   1.970   2.285 -0.0601 -1.4096  0.5840
  952TIP3P    O 2854   1.272   1.211   0.135  0.6504 -0.1511  0.0804
  952TIP3P    H 2855   1.182   1.227   0.163  1.4511  1.6357  1.6973
  952TIP3P    H 2856   1.296   1.288   0.084  2.0719  0.5584  1.7482
  953TIP3P    O 2857   0.755   1.530   0.288  0.2517  0.1396 -0.5966
  953TIP3P    H 2858   0.678   1.587   0.292  0.6021  0.5804 -0.0516
  953TIP3P    H 2859   0.754   1.495   0.199 -1.2039 -0.7152 -0.2752
  954TIP3P    O 2860   1.352   2.947   1.220  0.0457  0.4282  0.3159
  954TIP3P    H 2861   1.438   2.948   1.261 -0.2101  1.9845  0.8644
  954TIP3P    H 2862   1.290   2.941   1.292 -0.3221 -0.4402 -0.0604
  955TIP3P    O 2863   2.836   0.076   1.083  0.1499 -0.2573  0.1078
  955TIP3P    H 2864   2.793   0.120   1.010  0.1183 -1.4806 -0.6152
  955TIP3P    H 2865   2.897   0.015   1.042 -0.7162 -1.8129  1.0665
  956TIP3P    O 2866   2.755   2.300   1.383 -0.0952 -0.1428 -0.4216
  956TIP3P    H 2867   2.834   2.316   1.436 -0.4991  0.1860  0.0841
  956TIP3P    H 2868   2.686   2.347   1.429 -0.4610  0.0980 -1.2242
  957TIP3P    O 2869   0.014   1.085   1.850  0.5991 -0.6286  0.0261
  957TIP3P    H 2870   0.018   1.140   1.771  2.2431 -1.7658 -0.7214
  957TIP3P    H 2871   0.074   1.128   1.911 -1.0131  0.5002  0.8391
  958TIP3P    O 2872   2.659   1.581   3.048  0.4813  0.0550 -0.0979
  958TIP3P    H 2873   2.634   1.499   3.090  1.0456  0.9768  2.1074
  958TIP3P    H 2874   2.579   1.633   3.046  0.5919  0.2507  0.4349
  959TIP3P    O 2875   2.364   1.683   1.258 -0.5602  0.5124  0.0939
  959TIP3P    H 2876   2.448   1.637   1.256 -0.3738  0.9040 -1.5873
  959TIP3P    H 2877   2.341   1.686   1.351  0.3228 -1.3147  0.3941
  960TIP3P    O 2878   2.208   0.240   2.684  0.1308 -0.8316  0.0807
  960TIP3P    H 2879   2.168   0.287   2.611 -0.3819  0.3177  1.0899
  960TIP3P    H 2880   2.146   0.250   2.757  0.8736 -1.5155  0.8275
  961TIP3P    O 2881   1.346   2.265   1.056 -0.4371 -0.3570  0.3256
  961TIP3P    H 2882   1.308   2.347   1.087  0.2061  0.2130 -0.3691
  961TIP3P    H 2883   1.289   2.197   1.091 -0.3070  0.3284  1.8797
  962TIP3P    O 2884   2.780   2.188   0.815  0.1173 -0.0672  0.1711
  962TIP3P    H 2885   2.844   2.190   0.886  1.9340  1.8093 -1.4552
  962TIP3P    H 2886   2.813   2.251   0.751 -2.6991  0.0078 -1.2984
  963TIP3P    O 2887   0.099   2.703   0.731  0.0161  0.3615  0.3262
  963TIP3P    H 2888   0.019   2.657   0.708 -1.3029  2.9834 -0.4005
  963TIP3P    H 2889   0.163   2.676   0.665 -0.6812 -0.5347  0.0171
  964TIP3P    O 2890   2.653   2.778   2.314  0.2463  0.1098 -0.5637
  964TIP3P    H 2891   2.583   2.836   2.287  0.6217  0.6120 -0.4662
  964TIP3P    H 2892   2.647   2.776   2.410  0.1673 -0.0966 -0.5715
  965TIP3P    O 2893   0.374   1.889   1.541  0.1153 -1.0871 -0.0147
  965TIP3P    H 2894   0.453   1.890   1.487  0.7333  1.3024  0.8661
  965TIP3P    H 2895   0.377   1.971   1.589 -3.4745 -0.4045 -0.7619
  966TIP3P    O 2896   2.831   2.931   2.188 -0.2870 -0.0748  0.3165
  966TIP3P    H 2897   2.796   2.961   2.271 -2.8015 -0.1979 -0.6547
  966TIP3P    H 2898   2.796   2.843   2.177 -0.5336  0.1910 -1.1762
  967TIP3P    O 2899   0.818   1.679   2.891 -0.4009  0.4636 -0.0313
  967TIP3P    H 2900   0.824   1.749   2.956 -0.9858 -0.2409  0.7969
  967TIP3P    H 2901   0.882   1.702   2.824  2.2169 -0.2169  2.1560
  968TIP3P    O 2902   0.374   2.280   1.227  0.6268  0.0565 -0.2176
  968TIP3P    H 2903   0.456   2.243   1.257  0.1651 -1.6074 -0.9684
  968TIP3P    H 2904   0.312   2.266   1.299  0.2140 -1.5028 -0.8586
  969TIP3P    O 2905   0.664   1.745   0.746  0.1055  0.8240  0.2903
  969TIP3P    H 2906   0.660   1.841   0.746  2.3834  0.9688  2.0076
  969TIP3P    H 2907   0.726   1.724   0.676 -0.7075  0.5616 -0.3618
  970TIP3P    O 2908   2.874   1.929   2.684 -0.0567  0.0268  0.0611
  970TIP3P    H 2909   2.880   1.867   2.756  1.2361 -0.1369 -0.1786
  970TIP3P    H 2910   2.935   1.897   2.618 -0.1110  1.0026 -0.4865
  971TIP3P    O 2911   1.279   0.105   0.536  0.2343 -0.0420  0.3566
  971TIP3P    H 2912   1.261   0.183   0.589 -1.0747 -0.9825  1.3505
  971TIP3P    H 2913   1.356   0.066   0.577  0.6107  0.4694  0.1439
  972TIP3P    O 2914   2.479   0.952   0.166  0.3432  0.2021 -0.0193
  972TIP3P    H 2915   2.521   0.869   0.187  1.9590  1.1073  0.4213
  972TIP3P    H 2916   2.386   0.931   0.159  0.6104 -1.4498  1.0988
  973TIP3P    O 2917   1.252   1.226   2.621 -0.7954 -0.0319  0.0891
  973TIP3P    H 2918   1.263   1.308   2.572  0.6771 -0.0412  0.3817
  973TIP3P    H 2919   1.195   1.173   2.565 -0.3584  0.5350 -0.9243
  974TIP3P    O 2920   0.738   0.266   0.593  0.0559 -0.3005 -0.8649
  974TIP3P    H 2921   0.680   0.298   0.662 -1.2018 -1.1697 -1.4896
  974TIP3P    H 2922   0.763   0.178   0.621 -0.2893 -0.5747 -1.4059
  975TIP3P    O 2923   1.964   1.837   2.811  0.4012  0.7831  0.5145
  975TIP3P    H 2924   1.869   1.833   2.806  0.2344  1.5425  2.8243
  975TIP3P    H 2925   1.993   1.746   2.797 -0.5573  0.7285 -1.3590
  976TIP3P    O 2926   2.425   2.693   2.113 -0.0402 -0.3382  0.3608
  976TIP3P    H 2927   2.395   2.768   2.166 -1.4587 -1.5904  1.3812
  976TIP3P    H 2928   2.360   2.688   2.042  0.2935 -0.3535  0.0584
  977TIP3P    O 2929   1.963   0.054   0.551  0.4535  0.2478  0.1497
  977TIP3P    H 2930   1.995   0.099   0.472 -0.7577 -0.6201 -0.8586
  977TIP3P    H 2931   2.039   0.005   0.583  0.2091 -1.8261 -2.2425
  978TIP3P    O 2932   0.948   1.991   2.206  0.0836  0.3160 -0.7864
  978TIP3P    H 2933   0.931   1.897   2.200  3.1155 -0.3659  0.2524
  978TIP3P    H 2934   0.979   2.004   2.296 -2.0535  2.6453 -0.3395
  979TIP3P    O 2935   2.276   2.440   2.918 -0.1912 -0.7158  0.8417
  979TIP3P    H 2936   2.204   2.443   2.981 -1.1024 -0.9720 -0.1679
  979TIP3P    H 2937   2.237   2.473   2.837  0.3592 -2.4572 -0.1504
  980TIP3P    O 2938   0.927   3.022   2.105 -0.0129  0.2843 -0.2792
  980TIP3P    H 2939   0.880   2.982   2.031 -1.7441  1.0584  0.3857
  980TIP3P    H 2940   0.945   3.112   2.076 -0.3874  0.4823  0.1030
  981TIP3P    O 2941   0.701   2.799   0.369  0.1096  0.4228  0.0598
  981TIP3P    H 2942   0.668   2.740   0.436  0.2416  0.1689 -0.0970
  981TIP3P    H 2943   0.649   2.879   0.379  0.8330  0.7807  1.1583
  982TIP3P    O 2944   0.181   2.302   1.456  0.0072 -0.6565 -0.1816
  982TIP3P    H 2945   0.236   2.377   1.475  1.5472 -1.6052 -0.7892
  982TIP3P    H 2946   0.092   2.331   1.477  0.4634  1.5952 -1.2206
  983TIP3P    O 2947   0.236   1.784   0.547  0.4173  0.3250 -0.8475
  983TIP3P    H 2948   0.182   1.737   0.484 -1.2019 -1.2071  1.5707
  983TIP3P    H 2949   0.173   1.825   0.607  1.8795 -0.1616  1.0794
  984TIP3P    O 2950   2.377   2.109   1.772 -0.5599  0.5451 -0.8353
  984TIP3P    H 2951   2.456   2.116   1.719  1.6816  0.5612  2.3826
  984TIP3P    H 2952   2.367   2.016   1.789 -1.5661  0.4896 -1.6636
  985TIP3P    O 2953   2.346   0.225   2.367 -0.5343  1.0404  0.2045
  985TIP3P    H 2954   2.325   0.287   2.297 -0.2690  0.0216 -0.7957
  985TIP3P    H 2955   2.262   0.204   2.407 -0.7334  1.3334 -0.0584
  986TIP3P    O 2956   2.597   2.878   3.070 -0.1262  0.5370 -0.6661
  986TIP3P    H 2957   2.525   2.862   3.010  0.5593  0.0998 -1.3803
  986TIP3P    H 2958   2.657   2.804   3.056  0.3459  0.7722  0.0859
  987TIP3P    O 2959   2.513   1.541   2.136 -0.0706  0.4240  0.3882
  987TIP3P    H 2960   2.475   1.626   2.154  1.3804  1.2894 -0.5504
  987TIP3P    H 2961   2.591   1.560   2.084 -1.3984 -1.6015 -2.5480
  988TIP3P    O 2962   3.100   1.285   0.770 -0.4620 -0.6629  0.1712
  988TIP3P    H 2963   3.030   1.270   0.834  0.7086 -0.0502  1.6207
  988TIP3P    H 2964   3.076   1.368   0.727 -0.0007  0.1906  1.5349
  989TIP3P    O 2965   2.841   3.011   0.678 -0.3029  0.2815 -0.1323
  989TIP3P    H 2966   2.788   2.936   0.703 -0.6037  0.5512  0.0505
  989TIP3P    H 2967   2.908   2.975   0.621 -1.2287  0.0822 -1.1033
  990TIP3P    O 2968   2.983   1.780   1.486 -0.4359 -0.2833  0.2063
  990TIP3P    H 2969   2.923   1.755   1.557 -0.8170  0.1495  0.0339
  990TIP3P    H 2970   3.063   1.730   1.505 -1.1768 -1.6139 -0.1180
  991TIP3P    O 2971   2.092   2.048   2.937  0.1662  0.5814 -0.3194
  991TIP3P    H 2972   2.065   1.969   2.889  0.0777  1.8982 -2.5101
  991TIP3P    H 2973   2.012   2.100   2.946  0.3759  0.7793  0.4052
  992TIP3P    O 2974   1.151   1.694   0.319 -0.4477 -0.1572  0.0589
  992TIP3P    H 2975   1.085   1.763   0.311 -0.2726 -0.0185 -0.2071
  992TIP3P    H 2976   1.141   1.662   0.408  0.4143  1.1952  0.6659
  993TIP3P    O 2977   0.072   1.606   1.478  0.5403  0.2977 -0.1990
  993TIP3P    H 2978   0.138   1.549   1.518  0.7592 -0.7415 -1.9855
  993TIP3P    H 2979   0.122   1.662   1.418 -0.0550  0.2971 -0.6951
  994TIP3P    O 2980   2.225   1.226   2.671  0.1951 -0.3318  0.2980
  994TIP3P    H 2981   2.231   1.317   2.640 -2.3235 -0.0707  0.4625
  994TIP3P    H 2982   2.228   1.233   2.766  1.2398 -0.5385  0.2832
  995TIP3P    O 2983   1.255   1.399   1.184 -0.1532 -0.2711 -0.5355
  995TIP3P    H 2984   1.188   1.418   1.250  1.0437  0.0889  0.5719
  995TIP3P    H 2985   1.286   1.485   1.155 -0.3936 -0.4310 -1.3008
  996TIP3P    O 2986   2.180   0.166   1.349  0.2043 -0.2743  0.1939
  996TIP3P    H 2987   2.240   0.189   1.420 -1.1822 -0.2380  1.3708
  996TIP3P    H 2988   2.183   0.070   1.346  0.6569 -0.2540 -0.0483
  997TIP3P    O 2989   2.319   0.714   0.908 -0.2439  0.7348 -0.0767
  997TIP3P    H 2990   2.378   0.669   0.847  0.8838  0.7239  0.9912
  997TIP3P    H 2991   2.350   0.687   0.995 -2.6278 -0.2652  0.4998
  998TIP3P    O 2992   2.717   0.506   2.524 -0.1556 -0.5687  0.4228
  998TIP3P    H 2993   2.796   0.552   2.497  0.5980 -2.6978 -1.1814
  998TIP3P    H 2994   2.704   0.439   2.457 -2.7497 -0.9128  1.2155
  999TIP3P    O 2995   0.727   0.107   2.839  0.6308 -0.1633 -0.0236
  999TIP3P    H 2996   0.719   0.201   2.820  2.0939 -0.1217 -0.5195
  999TIP3P    H 2997   0.672   0.065   2.773 -1.1028  0.3953  1.0289
 1000TIP3P    O 2998   2.112   2.114   0.290 -0.3998  0.0056  0.0182
 1000TIP3P    H 2999   2.082   2.177   0.355  0.1681 -2.5096  2.8252
 1000TIP3P    H 3000   2.123   2.032   0.339 -0.7402 -2.1941 -3.4025
 1001Tb      Tb 3001   1.182   0.840   0.481  0.0102 -0.0500  0.1748
 1002Cl      Cl 3002   1.269   0.755   2.855  0.2991 -0.2437 -0.1791
 1003Cl      Cl 3003   1.031   1.655   2.626  0.3039 -0.1755  0.1078
 1004Cl      Cl 3004   0.785   3.000   0.981 -0.2574 -0.1798 -0.3168
   3.11799   3.11799   3.11799
